+ 1 0 1 tcp 40 ------- 0 0.0 2.0 0 0
- 1 0 1 tcp 40 ------- 0 0.0 2.0 0 0
r 1.050003 0 1 tcp 40 ------- 0 0.0 2.0 0 0
+ 1.050003 1 2 tcp 40 ------- 0 0.0 2.0 0 0
- 1.050003 1 2 tcp 40 ------- 0 0.0 2.0 0 0
r 1.051006 1 2 tcp 40 ------- 0 0.0 2.0 0 0
+ 1.051006 2 1 ack 40 ------- 0 2.0 0.0 0 1
- 1.051006 2 1 ack 40 ------- 0 2.0 0.0 0 1
r 1.05201 2 1 ack 40 ------- 0 2.0 0.0 0 1
+ 1.05201 1 0 ack 40 ------- 0 2.0 0.0 0 1
- 1.05201 1 0 ack 40 ------- 0 2.0 0.0 0 1
r 1.102013 1 0 ack 40 ------- 0 2.0 0.0 0 1
+ 1.102013 0 1 tcp 1540 ------- 0 0.0 2.0 1 2
- 1.102013 0 1 tcp 1540 ------- 0 0.0 2.0 1 2
+ 1.102013 0 1 tcp 1540 ------- 0 0.0 2.0 2 3
- 1.102136 0 1 tcp 1540 ------- 0 0.0 2.0 2 3
r 1.152136 0 1 tcp 1540 ------- 0 0.0 2.0 1 2
+ 1.152136 1 2 tcp 1540 ------- 0 0.0 2.0 1 2
- 1.152136 1 2 tcp 1540 ------- 0 0.0 2.0 1 2
r 1.152259 0 1 tcp 1540 ------- 0 0.0 2.0 2 3
+ 1.152259 1 2 tcp 1540 ------- 0 0.0 2.0 2 3
- 1.152259 1 2 tcp 1540 ------- 0 0.0 2.0 2 3
r 1.153259 1 2 tcp 1540 ------- 0 0.0 2.0 1 2
+ 1.153259 2 1 ack 40 ------- 0 2.0 0.0 1 4
- 1.153259 2 1 ack 40 ------- 0 2.0 0.0 1 4
r 1.153382 1 2 tcp 1540 ------- 0 0.0 2.0 2 3
+ 1.153382 2 1 ack 40 ------- 0 2.0 0.0 2 5
- 1.153382 2 1 ack 40 ------- 0 2.0 0.0 2 5
r 1.154262 2 1 ack 40 ------- 0 2.0 0.0 1 4
+ 1.154262 1 0 ack 40 ------- 0 2.0 0.0 1 4
- 1.154262 1 0 ack 40 ------- 0 2.0 0.0 1 4
r 1.154386 2 1 ack 40 ------- 0 2.0 0.0 2 5
+ 1.154386 1 0 ack 40 ------- 0 2.0 0.0 2 5
- 1.154386 1 0 ack 40 ------- 0 2.0 0.0 2 5
r 1.204266 1 0 ack 40 ------- 0 2.0 0.0 1 4
+ 1.204266 0 1 tcp 1540 ------- 0 0.0 2.0 3 6
- 1.204266 0 1 tcp 1540 ------- 0 0.0 2.0 3 6
+ 1.204266 0 1 tcp 1540 ------- 0 0.0 2.0 4 7
r 1.204389 1 0 ack 40 ------- 0 2.0 0.0 2 5
+ 1.204389 0 1 tcp 1540 ------- 0 0.0 2.0 5 8
+ 1.204389 0 1 tcp 1540 ------- 0 0.0 2.0 6 9
- 1.204389 0 1 tcp 1540 ------- 0 0.0 2.0 4 7
- 1.204512 0 1 tcp 1540 ------- 0 0.0 2.0 5 8
- 1.204635 0 1 tcp 1540 ------- 0 0.0 2.0 6 9
r 1.254389 0 1 tcp 1540 ------- 0 0.0 2.0 3 6
+ 1.254389 1 2 tcp 1540 ------- 0 0.0 2.0 3 6
- 1.254389 1 2 tcp 1540 ------- 0 0.0 2.0 3 6
r 1.254512 0 1 tcp 1540 ------- 0 0.0 2.0 4 7
+ 1.254512 1 2 tcp 1540 ------- 0 0.0 2.0 4 7
- 1.254512 1 2 tcp 1540 ------- 0 0.0 2.0 4 7
r 1.254635 0 1 tcp 1540 ------- 0 0.0 2.0 5 8
+ 1.254635 1 2 tcp 1540 ------- 0 0.0 2.0 5 8
- 1.254635 1 2 tcp 1540 ------- 0 0.0 2.0 5 8
r 1.254758 0 1 tcp 1540 ------- 0 0.0 2.0 6 9
+ 1.254758 1 2 tcp 1540 ------- 0 0.0 2.0 6 9
- 1.254758 1 2 tcp 1540 ------- 0 0.0 2.0 6 9
r 1.255512 1 2 tcp 1540 ------- 0 0.0 2.0 3 6
+ 1.255512 2 1 ack 40 ------- 0 2.0 0.0 3 10
- 1.255512 2 1 ack 40 ------- 0 2.0 0.0 3 10
r 1.255635 1 2 tcp 1540 ------- 0 0.0 2.0 4 7
+ 1.255635 2 1 ack 40 ------- 0 2.0 0.0 4 11
- 1.255635 2 1 ack 40 ------- 0 2.0 0.0 4 11
r 1.255758 1 2 tcp 1540 ------- 0 0.0 2.0 5 8
+ 1.255758 2 1 ack 40 ------- 0 2.0 0.0 5 12
- 1.255758 2 1 ack 40 ------- 0 2.0 0.0 5 12
r 1.255882 1 2 tcp 1540 ------- 0 0.0 2.0 6 9
+ 1.255882 2 1 ack 40 ------- 0 2.0 0.0 6 13
- 1.255882 2 1 ack 40 ------- 0 2.0 0.0 6 13
r 1.256515 2 1 ack 40 ------- 0 2.0 0.0 3 10
+ 1.256515 1 0 ack 40 ------- 0 2.0 0.0 3 10
- 1.256515 1 0 ack 40 ------- 0 2.0 0.0 3 10
r 1.256638 2 1 ack 40 ------- 0 2.0 0.0 4 11
+ 1.256638 1 0 ack 40 ------- 0 2.0 0.0 4 11
- 1.256638 1 0 ack 40 ------- 0 2.0 0.0 4 11
r 1.256762 2 1 ack 40 ------- 0 2.0 0.0 5 12
+ 1.256762 1 0 ack 40 ------- 0 2.0 0.0 5 12
- 1.256762 1 0 ack 40 ------- 0 2.0 0.0 5 12
r 1.256885 2 1 ack 40 ------- 0 2.0 0.0 6 13
+ 1.256885 1 0 ack 40 ------- 0 2.0 0.0 6 13
- 1.256885 1 0 ack 40 ------- 0 2.0 0.0 6 13
r 1.306518 1 0 ack 40 ------- 0 2.0 0.0 3 10
+ 1.306518 0 1 tcp 1540 ------- 0 0.0 2.0 7 14
- 1.306518 0 1 tcp 1540 ------- 0 0.0 2.0 7 14
+ 1.306518 0 1 tcp 1540 ------- 0 0.0 2.0 8 15
r 1.306642 1 0 ack 40 ------- 0 2.0 0.0 4 11
+ 1.306642 0 1 tcp 1540 ------- 0 0.0 2.0 9 16
+ 1.306642 0 1 tcp 1540 ------- 0 0.0 2.0 10 17
- 1.306642 0 1 tcp 1540 ------- 0 0.0 2.0 8 15
r 1.306765 1 0 ack 40 ------- 0 2.0 0.0 5 12
+ 1.306765 0 1 tcp 1540 ------- 0 0.0 2.0 11 18
+ 1.306765 0 1 tcp 1540 ------- 0 0.0 2.0 12 19
- 1.306765 0 1 tcp 1540 ------- 0 0.0 2.0 9 16
r 1.306888 1 0 ack 40 ------- 0 2.0 0.0 6 13
+ 1.306888 0 1 tcp 1540 ------- 0 0.0 2.0 13 20
+ 1.306888 0 1 tcp 1540 ------- 0 0.0 2.0 14 21
- 1.306888 0 1 tcp 1540 ------- 0 0.0 2.0 10 17
- 1.307011 0 1 tcp 1540 ------- 0 0.0 2.0 11 18
- 1.307134 0 1 tcp 1540 ------- 0 0.0 2.0 12 19
- 1.307258 0 1 tcp 1540 ------- 0 0.0 2.0 13 20
- 1.307381 0 1 tcp 1540 ------- 0 0.0 2.0 14 21
r 1.356642 0 1 tcp 1540 ------- 0 0.0 2.0 7 14
+ 1.356642 1 2 tcp 1540 ------- 0 0.0 2.0 7 14
- 1.356642 1 2 tcp 1540 ------- 0 0.0 2.0 7 14
r 1.356765 0 1 tcp 1540 ------- 0 0.0 2.0 8 15
+ 1.356765 1 2 tcp 1540 ------- 0 0.0 2.0 8 15
- 1.356765 1 2 tcp 1540 ------- 0 0.0 2.0 8 15
r 1.356888 0 1 tcp 1540 ------- 0 0.0 2.0 9 16
+ 1.356888 1 2 tcp 1540 ------- 0 0.0 2.0 9 16
- 1.356888 1 2 tcp 1540 ------- 0 0.0 2.0 9 16
r 1.357011 0 1 tcp 1540 ------- 0 0.0 2.0 10 17
+ 1.357011 1 2 tcp 1540 ------- 0 0.0 2.0 10 17
- 1.357011 1 2 tcp 1540 ------- 0 0.0 2.0 10 17
r 1.357134 0 1 tcp 1540 ------- 0 0.0 2.0 11 18
+ 1.357134 1 2 tcp 1540 ------- 0 0.0 2.0 11 18
- 1.357134 1 2 tcp 1540 ------- 0 0.0 2.0 11 18
r 1.357258 0 1 tcp 1540 ------- 0 0.0 2.0 12 19
+ 1.357258 1 2 tcp 1540 ------- 0 0.0 2.0 12 19
- 1.357258 1 2 tcp 1540 ------- 0 0.0 2.0 12 19
r 1.357381 0 1 tcp 1540 ------- 0 0.0 2.0 13 20
+ 1.357381 1 2 tcp 1540 ------- 0 0.0 2.0 13 20
- 1.357381 1 2 tcp 1540 ------- 0 0.0 2.0 13 20
r 1.357504 0 1 tcp 1540 ------- 0 0.0 2.0 14 21
+ 1.357504 1 2 tcp 1540 ------- 0 0.0 2.0 14 21
- 1.357504 1 2 tcp 1540 ------- 0 0.0 2.0 14 21
r 1.357765 1 2 tcp 1540 ------- 0 0.0 2.0 7 14
+ 1.357765 2 1 ack 40 ------- 0 2.0 0.0 7 22
- 1.357765 2 1 ack 40 ------- 0 2.0 0.0 7 22
r 1.357888 1 2 tcp 1540 ------- 0 0.0 2.0 8 15
+ 1.357888 2 1 ack 40 ------- 0 2.0 0.0 8 23
- 1.357888 2 1 ack 40 ------- 0 2.0 0.0 8 23
r 1.358011 1 2 tcp 1540 ------- 0 0.0 2.0 9 16
+ 1.358011 2 1 ack 40 ------- 0 2.0 0.0 9 24
- 1.358011 2 1 ack 40 ------- 0 2.0 0.0 9 24
r 1.358134 1 2 tcp 1540 ------- 0 0.0 2.0 10 17
+ 1.358134 2 1 ack 40 ------- 0 2.0 0.0 10 25
- 1.358134 2 1 ack 40 ------- 0 2.0 0.0 10 25
r 1.358258 1 2 tcp 1540 ------- 0 0.0 2.0 11 18
+ 1.358258 2 1 ack 40 ------- 0 2.0 0.0 11 26
- 1.358258 2 1 ack 40 ------- 0 2.0 0.0 11 26
r 1.358381 1 2 tcp 1540 ------- 0 0.0 2.0 12 19
+ 1.358381 2 1 ack 40 ------- 0 2.0 0.0 12 27
- 1.358381 2 1 ack 40 ------- 0 2.0 0.0 12 27
r 1.358504 1 2 tcp 1540 ------- 0 0.0 2.0 13 20
+ 1.358504 2 1 ack 40 ------- 0 2.0 0.0 13 28
- 1.358504 2 1 ack 40 ------- 0 2.0 0.0 13 28
r 1.358627 1 2 tcp 1540 ------- 0 0.0 2.0 14 21
+ 1.358627 2 1 ack 40 ------- 0 2.0 0.0 14 29
- 1.358627 2 1 ack 40 ------- 0 2.0 0.0 14 29
r 1.358768 2 1 ack 40 ------- 0 2.0 0.0 7 22
+ 1.358768 1 0 ack 40 ------- 0 2.0 0.0 7 22
- 1.358768 1 0 ack 40 ------- 0 2.0 0.0 7 22
r 1.358891 2 1 ack 40 ------- 0 2.0 0.0 8 23
+ 1.358891 1 0 ack 40 ------- 0 2.0 0.0 8 23
- 1.358891 1 0 ack 40 ------- 0 2.0 0.0 8 23
r 1.359014 2 1 ack 40 ------- 0 2.0 0.0 9 24
+ 1.359014 1 0 ack 40 ------- 0 2.0 0.0 9 24
- 1.359014 1 0 ack 40 ------- 0 2.0 0.0 9 24
r 1.359138 2 1 ack 40 ------- 0 2.0 0.0 10 25
+ 1.359138 1 0 ack 40 ------- 0 2.0 0.0 10 25
- 1.359138 1 0 ack 40 ------- 0 2.0 0.0 10 25
r 1.359261 2 1 ack 40 ------- 0 2.0 0.0 11 26
+ 1.359261 1 0 ack 40 ------- 0 2.0 0.0 11 26
- 1.359261 1 0 ack 40 ------- 0 2.0 0.0 11 26
r 1.359384 2 1 ack 40 ------- 0 2.0 0.0 12 27
+ 1.359384 1 0 ack 40 ------- 0 2.0 0.0 12 27
- 1.359384 1 0 ack 40 ------- 0 2.0 0.0 12 27
r 1.359507 2 1 ack 40 ------- 0 2.0 0.0 13 28
+ 1.359507 1 0 ack 40 ------- 0 2.0 0.0 13 28
- 1.359507 1 0 ack 40 ------- 0 2.0 0.0 13 28
r 1.35963 2 1 ack 40 ------- 0 2.0 0.0 14 29
+ 1.35963 1 0 ack 40 ------- 0 2.0 0.0 14 29
- 1.35963 1 0 ack 40 ------- 0 2.0 0.0 14 29
r 1.408771 1 0 ack 40 ------- 0 2.0 0.0 7 22
+ 1.408771 0 1 tcp 1540 ------- 0 0.0 2.0 15 30
- 1.408771 0 1 tcp 1540 ------- 0 0.0 2.0 15 30
+ 1.408771 0 1 tcp 1540 ------- 0 0.0 2.0 16 31
r 1.408894 1 0 ack 40 ------- 0 2.0 0.0 8 23
+ 1.408894 0 1 tcp 1540 ------- 0 0.0 2.0 17 32
+ 1.408894 0 1 tcp 1540 ------- 0 0.0 2.0 18 33
- 1.408894 0 1 tcp 1540 ------- 0 0.0 2.0 16 31
r 1.409018 1 0 ack 40 ------- 0 2.0 0.0 9 24
+ 1.409018 0 1 tcp 1540 ------- 0 0.0 2.0 19 34
+ 1.409018 0 1 tcp 1540 ------- 0 0.0 2.0 20 35
- 1.409018 0 1 tcp 1540 ------- 0 0.0 2.0 17 32
r 1.409141 1 0 ack 40 ------- 0 2.0 0.0 10 25
+ 1.409141 0 1 tcp 1540 ------- 0 0.0 2.0 21 36
+ 1.409141 0 1 tcp 1540 ------- 0 0.0 2.0 22 37
- 1.409141 0 1 tcp 1540 ------- 0 0.0 2.0 18 33
r 1.409264 1 0 ack 40 ------- 0 2.0 0.0 11 26
+ 1.409264 0 1 tcp 1540 ------- 0 0.0 2.0 23 38
+ 1.409264 0 1 tcp 1540 ------- 0 0.0 2.0 24 39
- 1.409264 0 1 tcp 1540 ------- 0 0.0 2.0 19 34
r 1.409387 1 0 ack 40 ------- 0 2.0 0.0 12 27
+ 1.409387 0 1 tcp 1540 ------- 0 0.0 2.0 25 40
+ 1.409387 0 1 tcp 1540 ------- 0 0.0 2.0 26 41
- 1.409387 0 1 tcp 1540 ------- 0 0.0 2.0 20 35
r 1.40951 1 0 ack 40 ------- 0 2.0 0.0 13 28
+ 1.40951 0 1 tcp 1540 ------- 0 0.0 2.0 27 42
+ 1.40951 0 1 tcp 1540 ------- 0 0.0 2.0 28 43
- 1.40951 0 1 tcp 1540 ------- 0 0.0 2.0 21 36
r 1.409634 1 0 ack 40 ------- 0 2.0 0.0 14 29
+ 1.409634 0 1 tcp 1540 ------- 0 0.0 2.0 29 44
+ 1.409634 0 1 tcp 1540 ------- 0 0.0 2.0 30 45
- 1.409634 0 1 tcp 1540 ------- 0 0.0 2.0 22 37
- 1.409757 0 1 tcp 1540 ------- 0 0.0 2.0 23 38
- 1.40988 0 1 tcp 1540 ------- 0 0.0 2.0 24 39
- 1.410003 0 1 tcp 1540 ------- 0 0.0 2.0 25 40
- 1.410126 0 1 tcp 1540 ------- 0 0.0 2.0 26 41
- 1.41025 0 1 tcp 1540 ------- 0 0.0 2.0 27 42
- 1.410373 0 1 tcp 1540 ------- 0 0.0 2.0 28 43
- 1.410496 0 1 tcp 1540 ------- 0 0.0 2.0 29 44
- 1.410619 0 1 tcp 1540 ------- 0 0.0 2.0 30 45
r 1.458894 0 1 tcp 1540 ------- 0 0.0 2.0 15 30
+ 1.458894 1 2 tcp 1540 ------- 0 0.0 2.0 15 30
- 1.458894 1 2 tcp 1540 ------- 0 0.0 2.0 15 30
r 1.459018 0 1 tcp 1540 ------- 0 0.0 2.0 16 31
+ 1.459018 1 2 tcp 1540 ------- 0 0.0 2.0 16 31
- 1.459018 1 2 tcp 1540 ------- 0 0.0 2.0 16 31
r 1.459141 0 1 tcp 1540 ------- 0 0.0 2.0 17 32
+ 1.459141 1 2 tcp 1540 ------- 0 0.0 2.0 17 32
- 1.459141 1 2 tcp 1540 ------- 0 0.0 2.0 17 32
r 1.459264 0 1 tcp 1540 ------- 0 0.0 2.0 18 33
+ 1.459264 1 2 tcp 1540 ------- 0 0.0 2.0 18 33
- 1.459264 1 2 tcp 1540 ------- 0 0.0 2.0 18 33
r 1.459387 0 1 tcp 1540 ------- 0 0.0 2.0 19 34
+ 1.459387 1 2 tcp 1540 ------- 0 0.0 2.0 19 34
- 1.459387 1 2 tcp 1540 ------- 0 0.0 2.0 19 34
r 1.45951 0 1 tcp 1540 ------- 0 0.0 2.0 20 35
+ 1.45951 1 2 tcp 1540 ------- 0 0.0 2.0 20 35
- 1.45951 1 2 tcp 1540 ------- 0 0.0 2.0 20 35
r 1.459634 0 1 tcp 1540 ------- 0 0.0 2.0 21 36
+ 1.459634 1 2 tcp 1540 ------- 0 0.0 2.0 21 36
- 1.459634 1 2 tcp 1540 ------- 0 0.0 2.0 21 36
r 1.459757 0 1 tcp 1540 ------- 0 0.0 2.0 22 37
+ 1.459757 1 2 tcp 1540 ------- 0 0.0 2.0 22 37
- 1.459757 1 2 tcp 1540 ------- 0 0.0 2.0 22 37
r 1.45988 0 1 tcp 1540 ------- 0 0.0 2.0 23 38
+ 1.45988 1 2 tcp 1540 ------- 0 0.0 2.0 23 38
- 1.45988 1 2 tcp 1540 ------- 0 0.0 2.0 23 38
r 1.460003 0 1 tcp 1540 ------- 0 0.0 2.0 24 39
+ 1.460003 1 2 tcp 1540 ------- 0 0.0 2.0 24 39
- 1.460003 1 2 tcp 1540 ------- 0 0.0 2.0 24 39
r 1.460018 1 2 tcp 1540 ------- 0 0.0 2.0 15 30
+ 1.460018 2 1 ack 40 ------- 0 2.0 0.0 15 46
- 1.460018 2 1 ack 40 ------- 0 2.0 0.0 15 46
r 1.460126 0 1 tcp 1540 ------- 0 0.0 2.0 25 40
+ 1.460126 1 2 tcp 1540 ------- 0 0.0 2.0 25 40
- 1.460126 1 2 tcp 1540 ------- 0 0.0 2.0 25 40
r 1.460141 1 2 tcp 1540 ------- 0 0.0 2.0 16 31
+ 1.460141 2 1 ack 40 ------- 0 2.0 0.0 16 47
- 1.460141 2 1 ack 40 ------- 0 2.0 0.0 16 47
r 1.46025 0 1 tcp 1540 ------- 0 0.0 2.0 26 41
+ 1.46025 1 2 tcp 1540 ------- 0 0.0 2.0 26 41
- 1.46025 1 2 tcp 1540 ------- 0 0.0 2.0 26 41
r 1.460264 1 2 tcp 1540 ------- 0 0.0 2.0 17 32
+ 1.460264 2 1 ack 40 ------- 0 2.0 0.0 17 48
- 1.460264 2 1 ack 40 ------- 0 2.0 0.0 17 48
r 1.460373 0 1 tcp 1540 ------- 0 0.0 2.0 27 42
+ 1.460373 1 2 tcp 1540 ------- 0 0.0 2.0 27 42
- 1.460373 1 2 tcp 1540 ------- 0 0.0 2.0 27 42
r 1.460387 1 2 tcp 1540 ------- 0 0.0 2.0 18 33
+ 1.460387 2 1 ack 40 ------- 0 2.0 0.0 18 49
- 1.460387 2 1 ack 40 ------- 0 2.0 0.0 18 49
r 1.460496 0 1 tcp 1540 ------- 0 0.0 2.0 28 43
+ 1.460496 1 2 tcp 1540 ------- 0 0.0 2.0 28 43
- 1.460496 1 2 tcp 1540 ------- 0 0.0 2.0 28 43
r 1.46051 1 2 tcp 1540 ------- 0 0.0 2.0 19 34
+ 1.46051 2 1 ack 40 ------- 0 2.0 0.0 19 50
- 1.46051 2 1 ack 40 ------- 0 2.0 0.0 19 50
r 1.460619 0 1 tcp 1540 ------- 0 0.0 2.0 29 44
+ 1.460619 1 2 tcp 1540 ------- 0 0.0 2.0 29 44
- 1.460619 1 2 tcp 1540 ------- 0 0.0 2.0 29 44
r 1.460634 1 2 tcp 1540 ------- 0 0.0 2.0 20 35
+ 1.460634 2 1 ack 40 ------- 0 2.0 0.0 20 51
- 1.460634 2 1 ack 40 ------- 0 2.0 0.0 20 51
r 1.460742 0 1 tcp 1540 ------- 0 0.0 2.0 30 45
+ 1.460742 1 2 tcp 1540 ------- 0 0.0 2.0 30 45
- 1.460742 1 2 tcp 1540 ------- 0 0.0 2.0 30 45
r 1.460757 1 2 tcp 1540 ------- 0 0.0 2.0 21 36
+ 1.460757 2 1 ack 40 ------- 0 2.0 0.0 21 52
- 1.460757 2 1 ack 40 ------- 0 2.0 0.0 21 52
r 1.46088 1 2 tcp 1540 ------- 0 0.0 2.0 22 37
+ 1.46088 2 1 ack 40 ------- 0 2.0 0.0 22 53
- 1.46088 2 1 ack 40 ------- 0 2.0 0.0 22 53
r 1.461003 1 2 tcp 1540 ------- 0 0.0 2.0 23 38
+ 1.461003 2 1 ack 40 ------- 0 2.0 0.0 23 54
- 1.461003 2 1 ack 40 ------- 0 2.0 0.0 23 54
r 1.461021 2 1 ack 40 ------- 0 2.0 0.0 15 46
+ 1.461021 1 0 ack 40 ------- 0 2.0 0.0 15 46
- 1.461021 1 0 ack 40 ------- 0 2.0 0.0 15 46
r 1.461126 1 2 tcp 1540 ------- 0 0.0 2.0 24 39
+ 1.461126 2 1 ack 40 ------- 0 2.0 0.0 24 55
- 1.461126 2 1 ack 40 ------- 0 2.0 0.0 24 55
r 1.461144 2 1 ack 40 ------- 0 2.0 0.0 16 47
+ 1.461144 1 0 ack 40 ------- 0 2.0 0.0 16 47
- 1.461144 1 0 ack 40 ------- 0 2.0 0.0 16 47
r 1.46125 1 2 tcp 1540 ------- 0 0.0 2.0 25 40
+ 1.46125 2 1 ack 40 ------- 0 2.0 0.0 25 56
- 1.46125 2 1 ack 40 ------- 0 2.0 0.0 25 56
r 1.461267 2 1 ack 40 ------- 0 2.0 0.0 17 48
+ 1.461267 1 0 ack 40 ------- 0 2.0 0.0 17 48
- 1.461267 1 0 ack 40 ------- 0 2.0 0.0 17 48
r 1.461373 1 2 tcp 1540 ------- 0 0.0 2.0 26 41
+ 1.461373 2 1 ack 40 ------- 0 2.0 0.0 26 57
- 1.461373 2 1 ack 40 ------- 0 2.0 0.0 26 57
r 1.46139 2 1 ack 40 ------- 0 2.0 0.0 18 49
+ 1.46139 1 0 ack 40 ------- 0 2.0 0.0 18 49
- 1.46139 1 0 ack 40 ------- 0 2.0 0.0 18 49
r 1.461496 1 2 tcp 1540 ------- 0 0.0 2.0 27 42
+ 1.461496 2 1 ack 40 ------- 0 2.0 0.0 27 58
- 1.461496 2 1 ack 40 ------- 0 2.0 0.0 27 58
r 1.461514 2 1 ack 40 ------- 0 2.0 0.0 19 50
+ 1.461514 1 0 ack 40 ------- 0 2.0 0.0 19 50
- 1.461514 1 0 ack 40 ------- 0 2.0 0.0 19 50
r 1.461619 1 2 tcp 1540 ------- 0 0.0 2.0 28 43
+ 1.461619 2 1 ack 40 ------- 0 2.0 0.0 28 59
- 1.461619 2 1 ack 40 ------- 0 2.0 0.0 28 59
r 1.461637 2 1 ack 40 ------- 0 2.0 0.0 20 51
+ 1.461637 1 0 ack 40 ------- 0 2.0 0.0 20 51
- 1.461637 1 0 ack 40 ------- 0 2.0 0.0 20 51
r 1.461742 1 2 tcp 1540 ------- 0 0.0 2.0 29 44
+ 1.461742 2 1 ack 40 ------- 0 2.0 0.0 29 60
- 1.461742 2 1 ack 40 ------- 0 2.0 0.0 29 60
r 1.46176 2 1 ack 40 ------- 0 2.0 0.0 21 52
+ 1.46176 1 0 ack 40 ------- 0 2.0 0.0 21 52
- 1.46176 1 0 ack 40 ------- 0 2.0 0.0 21 52
r 1.461866 1 2 tcp 1540 ------- 0 0.0 2.0 30 45
+ 1.461866 2 1 ack 40 ------- 0 2.0 0.0 30 61
- 1.461866 2 1 ack 40 ------- 0 2.0 0.0 30 61
r 1.461883 2 1 ack 40 ------- 0 2.0 0.0 22 53
+ 1.461883 1 0 ack 40 ------- 0 2.0 0.0 22 53
- 1.461883 1 0 ack 40 ------- 0 2.0 0.0 22 53
r 1.462006 2 1 ack 40 ------- 0 2.0 0.0 23 54
+ 1.462006 1 0 ack 40 ------- 0 2.0 0.0 23 54
- 1.462006 1 0 ack 40 ------- 0 2.0 0.0 23 54
r 1.46213 2 1 ack 40 ------- 0 2.0 0.0 24 55
+ 1.46213 1 0 ack 40 ------- 0 2.0 0.0 24 55
- 1.46213 1 0 ack 40 ------- 0 2.0 0.0 24 55
r 1.462253 2 1 ack 40 ------- 0 2.0 0.0 25 56
+ 1.462253 1 0 ack 40 ------- 0 2.0 0.0 25 56
- 1.462253 1 0 ack 40 ------- 0 2.0 0.0 25 56
r 1.462376 2 1 ack 40 ------- 0 2.0 0.0 26 57
+ 1.462376 1 0 ack 40 ------- 0 2.0 0.0 26 57
- 1.462376 1 0 ack 40 ------- 0 2.0 0.0 26 57
r 1.462499 2 1 ack 40 ------- 0 2.0 0.0 27 58
+ 1.462499 1 0 ack 40 ------- 0 2.0 0.0 27 58
- 1.462499 1 0 ack 40 ------- 0 2.0 0.0 27 58
r 1.462622 2 1 ack 40 ------- 0 2.0 0.0 28 59
+ 1.462622 1 0 ack 40 ------- 0 2.0 0.0 28 59
- 1.462622 1 0 ack 40 ------- 0 2.0 0.0 28 59
r 1.462746 2 1 ack 40 ------- 0 2.0 0.0 29 60
+ 1.462746 1 0 ack 40 ------- 0 2.0 0.0 29 60
- 1.462746 1 0 ack 40 ------- 0 2.0 0.0 29 60
r 1.462869 2 1 ack 40 ------- 0 2.0 0.0 30 61
+ 1.462869 1 0 ack 40 ------- 0 2.0 0.0 30 61
- 1.462869 1 0 ack 40 ------- 0 2.0 0.0 30 61
r 1.511024 1 0 ack 40 ------- 0 2.0 0.0 15 46
+ 1.511024 0 1 tcp 1540 ------- 0 0.0 2.0 31 62
- 1.511024 0 1 tcp 1540 ------- 0 0.0 2.0 31 62
+ 1.511024 0 1 tcp 1540 ------- 0 0.0 2.0 32 63
r 1.511147 1 0 ack 40 ------- 0 2.0 0.0 16 47
+ 1.511147 0 1 tcp 1540 ------- 0 0.0 2.0 33 64
+ 1.511147 0 1 tcp 1540 ------- 0 0.0 2.0 34 65
- 1.511147 0 1 tcp 1540 ------- 0 0.0 2.0 32 63
r 1.51127 1 0 ack 40 ------- 0 2.0 0.0 17 48
+ 1.51127 0 1 tcp 1540 ------- 0 0.0 2.0 35 66
+ 1.51127 0 1 tcp 1540 ------- 0 0.0 2.0 36 67
- 1.51127 0 1 tcp 1540 ------- 0 0.0 2.0 33 64
r 1.511394 1 0 ack 40 ------- 0 2.0 0.0 18 49
+ 1.511394 0 1 tcp 1540 ------- 0 0.0 2.0 37 68
+ 1.511394 0 1 tcp 1540 ------- 0 0.0 2.0 38 69
- 1.511394 0 1 tcp 1540 ------- 0 0.0 2.0 34 65
r 1.511517 1 0 ack 40 ------- 0 2.0 0.0 19 50
+ 1.511517 0 1 tcp 1540 ------- 0 0.0 2.0 39 70
- 1.511517 0 1 tcp 1540 ------- 0 0.0 2.0 35 66
r 1.51164 1 0 ack 40 ------- 0 2.0 0.0 20 51
+ 1.51164 0 1 tcp 1540 ------- 0 0.0 2.0 40 71
- 1.51164 0 1 tcp 1540 ------- 0 0.0 2.0 36 67
r 1.511763 1 0 ack 40 ------- 0 2.0 0.0 21 52
+ 1.511763 0 1 tcp 1540 ------- 0 0.0 2.0 41 72
- 1.511763 0 1 tcp 1540 ------- 0 0.0 2.0 37 68
r 1.511886 1 0 ack 40 ------- 0 2.0 0.0 22 53
+ 1.511886 0 1 tcp 1540 ------- 0 0.0 2.0 42 73
- 1.511886 0 1 tcp 1540 ------- 0 0.0 2.0 38 69
r 1.51201 1 0 ack 40 ------- 0 2.0 0.0 23 54
+ 1.51201 0 1 tcp 1540 ------- 0 0.0 2.0 43 74
- 1.51201 0 1 tcp 1540 ------- 0 0.0 2.0 39 70
r 1.512133 1 0 ack 40 ------- 0 2.0 0.0 24 55
+ 1.512133 0 1 tcp 1540 ------- 0 0.0 2.0 44 75
- 1.512133 0 1 tcp 1540 ------- 0 0.0 2.0 40 71
r 1.512256 1 0 ack 40 ------- 0 2.0 0.0 25 56
+ 1.512256 0 1 tcp 1540 ------- 0 0.0 2.0 45 76
- 1.512256 0 1 tcp 1540 ------- 0 0.0 2.0 41 72
r 1.512379 1 0 ack 40 ------- 0 2.0 0.0 26 57
+ 1.512379 0 1 tcp 1540 ------- 0 0.0 2.0 46 77
- 1.512379 0 1 tcp 1540 ------- 0 0.0 2.0 42 73
r 1.512502 1 0 ack 40 ------- 0 2.0 0.0 27 58
+ 1.512502 0 1 tcp 1540 ------- 0 0.0 2.0 47 78
- 1.512502 0 1 tcp 1540 ------- 0 0.0 2.0 43 74
r 1.512626 1 0 ack 40 ------- 0 2.0 0.0 28 59
+ 1.512626 0 1 tcp 1540 ------- 0 0.0 2.0 48 79
- 1.512626 0 1 tcp 1540 ------- 0 0.0 2.0 44 75
r 1.512749 1 0 ack 40 ------- 0 2.0 0.0 29 60
+ 1.512749 0 1 tcp 1540 ------- 0 0.0 2.0 49 80
- 1.512749 0 1 tcp 1540 ------- 0 0.0 2.0 45 76
r 1.512872 1 0 ack 40 ------- 0 2.0 0.0 30 61
+ 1.512872 0 1 tcp 1540 ------- 0 0.0 2.0 50 81
- 1.512872 0 1 tcp 1540 ------- 0 0.0 2.0 46 77
- 1.512995 0 1 tcp 1540 ------- 0 0.0 2.0 47 78
- 1.513118 0 1 tcp 1540 ------- 0 0.0 2.0 48 79
- 1.513242 0 1 tcp 1540 ------- 0 0.0 2.0 49 80
- 1.513365 0 1 tcp 1540 ------- 0 0.0 2.0 50 81
r 1.561147 0 1 tcp 1540 ------- 0 0.0 2.0 31 62
+ 1.561147 1 2 tcp 1540 ------- 0 0.0 2.0 31 62
- 1.561147 1 2 tcp 1540 ------- 0 0.0 2.0 31 62
r 1.56127 0 1 tcp 1540 ------- 0 0.0 2.0 32 63
+ 1.56127 1 2 tcp 1540 ------- 0 0.0 2.0 32 63
- 1.56127 1 2 tcp 1540 ------- 0 0.0 2.0 32 63
r 1.561394 0 1 tcp 1540 ------- 0 0.0 2.0 33 64
+ 1.561394 1 2 tcp 1540 ------- 0 0.0 2.0 33 64
- 1.561394 1 2 tcp 1540 ------- 0 0.0 2.0 33 64
r 1.561517 0 1 tcp 1540 ------- 0 0.0 2.0 34 65
+ 1.561517 1 2 tcp 1540 ------- 0 0.0 2.0 34 65
- 1.561517 1 2 tcp 1540 ------- 0 0.0 2.0 34 65
r 1.56164 0 1 tcp 1540 ------- 0 0.0 2.0 35 66
+ 1.56164 1 2 tcp 1540 ------- 0 0.0 2.0 35 66
- 1.56164 1 2 tcp 1540 ------- 0 0.0 2.0 35 66
r 1.561763 0 1 tcp 1540 ------- 0 0.0 2.0 36 67
+ 1.561763 1 2 tcp 1540 ------- 0 0.0 2.0 36 67
- 1.561763 1 2 tcp 1540 ------- 0 0.0 2.0 36 67
r 1.561886 0 1 tcp 1540 ------- 0 0.0 2.0 37 68
+ 1.561886 1 2 tcp 1540 ------- 0 0.0 2.0 37 68
- 1.561886 1 2 tcp 1540 ------- 0 0.0 2.0 37 68
r 1.56201 0 1 tcp 1540 ------- 0 0.0 2.0 38 69
+ 1.56201 1 2 tcp 1540 ------- 0 0.0 2.0 38 69
- 1.56201 1 2 tcp 1540 ------- 0 0.0 2.0 38 69
r 1.562133 0 1 tcp 1540 ------- 0 0.0 2.0 39 70
+ 1.562133 1 2 tcp 1540 ------- 0 0.0 2.0 39 70
- 1.562133 1 2 tcp 1540 ------- 0 0.0 2.0 39 70
r 1.562256 0 1 tcp 1540 ------- 0 0.0 2.0 40 71
+ 1.562256 1 2 tcp 1540 ------- 0 0.0 2.0 40 71
- 1.562256 1 2 tcp 1540 ------- 0 0.0 2.0 40 71
r 1.56227 1 2 tcp 1540 ------- 0 0.0 2.0 31 62
+ 1.56227 2 1 ack 40 ------- 0 2.0 0.0 31 82
- 1.56227 2 1 ack 40 ------- 0 2.0 0.0 31 82
r 1.562379 0 1 tcp 1540 ------- 0 0.0 2.0 41 72
+ 1.562379 1 2 tcp 1540 ------- 0 0.0 2.0 41 72
- 1.562379 1 2 tcp 1540 ------- 0 0.0 2.0 41 72
r 1.562394 1 2 tcp 1540 ------- 0 0.0 2.0 32 63
+ 1.562394 2 1 ack 40 ------- 0 2.0 0.0 32 83
- 1.562394 2 1 ack 40 ------- 0 2.0 0.0 32 83
r 1.562502 0 1 tcp 1540 ------- 0 0.0 2.0 42 73
+ 1.562502 1 2 tcp 1540 ------- 0 0.0 2.0 42 73
- 1.562502 1 2 tcp 1540 ------- 0 0.0 2.0 42 73
r 1.562517 1 2 tcp 1540 ------- 0 0.0 2.0 33 64
+ 1.562517 2 1 ack 40 ------- 0 2.0 0.0 33 84
- 1.562517 2 1 ack 40 ------- 0 2.0 0.0 33 84
r 1.562626 0 1 tcp 1540 ------- 0 0.0 2.0 43 74
+ 1.562626 1 2 tcp 1540 ------- 0 0.0 2.0 43 74
- 1.562626 1 2 tcp 1540 ------- 0 0.0 2.0 43 74
r 1.56264 1 2 tcp 1540 ------- 0 0.0 2.0 34 65
+ 1.56264 2 1 ack 40 ------- 0 2.0 0.0 34 85
- 1.56264 2 1 ack 40 ------- 0 2.0 0.0 34 85
r 1.562749 0 1 tcp 1540 ------- 0 0.0 2.0 44 75
+ 1.562749 1 2 tcp 1540 ------- 0 0.0 2.0 44 75
- 1.562749 1 2 tcp 1540 ------- 0 0.0 2.0 44 75
r 1.562763 1 2 tcp 1540 ------- 0 0.0 2.0 35 66
+ 1.562763 2 1 ack 40 ------- 0 2.0 0.0 35 86
- 1.562763 2 1 ack 40 ------- 0 2.0 0.0 35 86
r 1.562872 0 1 tcp 1540 ------- 0 0.0 2.0 45 76
+ 1.562872 1 2 tcp 1540 ------- 0 0.0 2.0 45 76
- 1.562872 1 2 tcp 1540 ------- 0 0.0 2.0 45 76
r 1.562886 1 2 tcp 1540 ------- 0 0.0 2.0 36 67
+ 1.562886 2 1 ack 40 ------- 0 2.0 0.0 36 87
- 1.562886 2 1 ack 40 ------- 0 2.0 0.0 36 87
r 1.562995 0 1 tcp 1540 ------- 0 0.0 2.0 46 77
+ 1.562995 1 2 tcp 1540 ------- 0 0.0 2.0 46 77
- 1.562995 1 2 tcp 1540 ------- 0 0.0 2.0 46 77
r 1.56301 1 2 tcp 1540 ------- 0 0.0 2.0 37 68
+ 1.56301 2 1 ack 40 ------- 0 2.0 0.0 37 88
- 1.56301 2 1 ack 40 ------- 0 2.0 0.0 37 88
r 1.563118 0 1 tcp 1540 ------- 0 0.0 2.0 47 78
+ 1.563118 1 2 tcp 1540 ------- 0 0.0 2.0 47 78
- 1.563118 1 2 tcp 1540 ------- 0 0.0 2.0 47 78
r 1.563133 1 2 tcp 1540 ------- 0 0.0 2.0 38 69
+ 1.563133 2 1 ack 40 ------- 0 2.0 0.0 38 89
- 1.563133 2 1 ack 40 ------- 0 2.0 0.0 38 89
r 1.563242 0 1 tcp 1540 ------- 0 0.0 2.0 48 79
+ 1.563242 1 2 tcp 1540 ------- 0 0.0 2.0 48 79
- 1.563242 1 2 tcp 1540 ------- 0 0.0 2.0 48 79
r 1.563256 1 2 tcp 1540 ------- 0 0.0 2.0 39 70
+ 1.563256 2 1 ack 40 ------- 0 2.0 0.0 39 90
- 1.563256 2 1 ack 40 ------- 0 2.0 0.0 39 90
r 1.563274 2 1 ack 40 ------- 0 2.0 0.0 31 82
+ 1.563274 1 0 ack 40 ------- 0 2.0 0.0 31 82
- 1.563274 1 0 ack 40 ------- 0 2.0 0.0 31 82
r 1.563365 0 1 tcp 1540 ------- 0 0.0 2.0 49 80
+ 1.563365 1 2 tcp 1540 ------- 0 0.0 2.0 49 80
- 1.563365 1 2 tcp 1540 ------- 0 0.0 2.0 49 80
r 1.563379 1 2 tcp 1540 ------- 0 0.0 2.0 40 71
+ 1.563379 2 1 ack 40 ------- 0 2.0 0.0 40 91
- 1.563379 2 1 ack 40 ------- 0 2.0 0.0 40 91
r 1.563397 2 1 ack 40 ------- 0 2.0 0.0 32 83
+ 1.563397 1 0 ack 40 ------- 0 2.0 0.0 32 83
- 1.563397 1 0 ack 40 ------- 0 2.0 0.0 32 83
r 1.563488 0 1 tcp 1540 ------- 0 0.0 2.0 50 81
+ 1.563488 1 2 tcp 1540 ------- 0 0.0 2.0 50 81
- 1.563488 1 2 tcp 1540 ------- 0 0.0 2.0 50 81
r 1.563502 1 2 tcp 1540 ------- 0 0.0 2.0 41 72
+ 1.563502 2 1 ack 40 ------- 0 2.0 0.0 41 92
- 1.563502 2 1 ack 40 ------- 0 2.0 0.0 41 92
r 1.56352 2 1 ack 40 ------- 0 2.0 0.0 33 84
+ 1.56352 1 0 ack 40 ------- 0 2.0 0.0 33 84
- 1.56352 1 0 ack 40 ------- 0 2.0 0.0 33 84
r 1.563626 1 2 tcp 1540 ------- 0 0.0 2.0 42 73
+ 1.563626 2 1 ack 40 ------- 0 2.0 0.0 42 93
- 1.563626 2 1 ack 40 ------- 0 2.0 0.0 42 93
r 1.563643 2 1 ack 40 ------- 0 2.0 0.0 34 85
+ 1.563643 1 0 ack 40 ------- 0 2.0 0.0 34 85
- 1.563643 1 0 ack 40 ------- 0 2.0 0.0 34 85
r 1.563749 1 2 tcp 1540 ------- 0 0.0 2.0 43 74
+ 1.563749 2 1 ack 40 ------- 0 2.0 0.0 43 94
- 1.563749 2 1 ack 40 ------- 0 2.0 0.0 43 94
r 1.563766 2 1 ack 40 ------- 0 2.0 0.0 35 86
+ 1.563766 1 0 ack 40 ------- 0 2.0 0.0 35 86
- 1.563766 1 0 ack 40 ------- 0 2.0 0.0 35 86
r 1.563872 1 2 tcp 1540 ------- 0 0.0 2.0 44 75
+ 1.563872 2 1 ack 40 ------- 0 2.0 0.0 44 95
- 1.563872 2 1 ack 40 ------- 0 2.0 0.0 44 95
r 1.56389 2 1 ack 40 ------- 0 2.0 0.0 36 87
+ 1.56389 1 0 ack 40 ------- 0 2.0 0.0 36 87
- 1.56389 1 0 ack 40 ------- 0 2.0 0.0 36 87
r 1.563995 1 2 tcp 1540 ------- 0 0.0 2.0 45 76
+ 1.563995 2 1 ack 40 ------- 0 2.0 0.0 45 96
- 1.563995 2 1 ack 40 ------- 0 2.0 0.0 45 96
r 1.564013 2 1 ack 40 ------- 0 2.0 0.0 37 88
+ 1.564013 1 0 ack 40 ------- 0 2.0 0.0 37 88
- 1.564013 1 0 ack 40 ------- 0 2.0 0.0 37 88
r 1.564118 1 2 tcp 1540 ------- 0 0.0 2.0 46 77
+ 1.564118 2 1 ack 40 ------- 0 2.0 0.0 46 97
- 1.564118 2 1 ack 40 ------- 0 2.0 0.0 46 97
r 1.564136 2 1 ack 40 ------- 0 2.0 0.0 38 89
+ 1.564136 1 0 ack 40 ------- 0 2.0 0.0 38 89
- 1.564136 1 0 ack 40 ------- 0 2.0 0.0 38 89
r 1.564242 1 2 tcp 1540 ------- 0 0.0 2.0 47 78
+ 1.564242 2 1 ack 40 ------- 0 2.0 0.0 47 98
- 1.564242 2 1 ack 40 ------- 0 2.0 0.0 47 98
r 1.564259 2 1 ack 40 ------- 0 2.0 0.0 39 90
+ 1.564259 1 0 ack 40 ------- 0 2.0 0.0 39 90
- 1.564259 1 0 ack 40 ------- 0 2.0 0.0 39 90
r 1.564365 1 2 tcp 1540 ------- 0 0.0 2.0 48 79
+ 1.564365 2 1 ack 40 ------- 0 2.0 0.0 48 99
- 1.564365 2 1 ack 40 ------- 0 2.0 0.0 48 99
r 1.564382 2 1 ack 40 ------- 0 2.0 0.0 40 91
+ 1.564382 1 0 ack 40 ------- 0 2.0 0.0 40 91
- 1.564382 1 0 ack 40 ------- 0 2.0 0.0 40 91
r 1.564488 1 2 tcp 1540 ------- 0 0.0 2.0 49 80
+ 1.564488 2 1 ack 40 ------- 0 2.0 0.0 49 100
- 1.564488 2 1 ack 40 ------- 0 2.0 0.0 49 100
r 1.564506 2 1 ack 40 ------- 0 2.0 0.0 41 92
+ 1.564506 1 0 ack 40 ------- 0 2.0 0.0 41 92
- 1.564506 1 0 ack 40 ------- 0 2.0 0.0 41 92
r 1.564611 1 2 tcp 1540 ------- 0 0.0 2.0 50 81
+ 1.564611 2 1 ack 40 ------- 0 2.0 0.0 50 101
- 1.564611 2 1 ack 40 ------- 0 2.0 0.0 50 101
r 1.564629 2 1 ack 40 ------- 0 2.0 0.0 42 93
+ 1.564629 1 0 ack 40 ------- 0 2.0 0.0 42 93
- 1.564629 1 0 ack 40 ------- 0 2.0 0.0 42 93
r 1.564752 2 1 ack 40 ------- 0 2.0 0.0 43 94
+ 1.564752 1 0 ack 40 ------- 0 2.0 0.0 43 94
- 1.564752 1 0 ack 40 ------- 0 2.0 0.0 43 94
r 1.564875 2 1 ack 40 ------- 0 2.0 0.0 44 95
+ 1.564875 1 0 ack 40 ------- 0 2.0 0.0 44 95
- 1.564875 1 0 ack 40 ------- 0 2.0 0.0 44 95
r 1.564998 2 1 ack 40 ------- 0 2.0 0.0 45 96
+ 1.564998 1 0 ack 40 ------- 0 2.0 0.0 45 96
- 1.564998 1 0 ack 40 ------- 0 2.0 0.0 45 96
r 1.565122 2 1 ack 40 ------- 0 2.0 0.0 46 97
+ 1.565122 1 0 ack 40 ------- 0 2.0 0.0 46 97
- 1.565122 1 0 ack 40 ------- 0 2.0 0.0 46 97
r 1.565245 2 1 ack 40 ------- 0 2.0 0.0 47 98
+ 1.565245 1 0 ack 40 ------- 0 2.0 0.0 47 98
- 1.565245 1 0 ack 40 ------- 0 2.0 0.0 47 98
r 1.565368 2 1 ack 40 ------- 0 2.0 0.0 48 99
+ 1.565368 1 0 ack 40 ------- 0 2.0 0.0 48 99
- 1.565368 1 0 ack 40 ------- 0 2.0 0.0 48 99
r 1.565491 2 1 ack 40 ------- 0 2.0 0.0 49 100
+ 1.565491 1 0 ack 40 ------- 0 2.0 0.0 49 100
- 1.565491 1 0 ack 40 ------- 0 2.0 0.0 49 100
r 1.565614 2 1 ack 40 ------- 0 2.0 0.0 50 101
+ 1.565614 1 0 ack 40 ------- 0 2.0 0.0 50 101
- 1.565614 1 0 ack 40 ------- 0 2.0 0.0 50 101
r 1.613277 1 0 ack 40 ------- 0 2.0 0.0 31 82
+ 1.613277 0 1 tcp 1540 ------- 0 0.0 2.0 51 102
- 1.613277 0 1 tcp 1540 ------- 0 0.0 2.0 51 102
r 1.6134 1 0 ack 40 ------- 0 2.0 0.0 32 83
+ 1.6134 0 1 tcp 1540 ------- 0 0.0 2.0 52 103
- 1.6134 0 1 tcp 1540 ------- 0 0.0 2.0 52 103
r 1.613523 1 0 ack 40 ------- 0 2.0 0.0 33 84
+ 1.613523 0 1 tcp 1540 ------- 0 0.0 2.0 53 104
- 1.613523 0 1 tcp 1540 ------- 0 0.0 2.0 53 104
r 1.613646 1 0 ack 40 ------- 0 2.0 0.0 34 85
+ 1.613646 0 1 tcp 1540 ------- 0 0.0 2.0 54 105
- 1.613646 0 1 tcp 1540 ------- 0 0.0 2.0 54 105
r 1.61377 1 0 ack 40 ------- 0 2.0 0.0 35 86
+ 1.61377 0 1 tcp 1540 ------- 0 0.0 2.0 55 106
- 1.61377 0 1 tcp 1540 ------- 0 0.0 2.0 55 106
r 1.613893 1 0 ack 40 ------- 0 2.0 0.0 36 87
+ 1.613893 0 1 tcp 1540 ------- 0 0.0 2.0 56 107
- 1.613893 0 1 tcp 1540 ------- 0 0.0 2.0 56 107
r 1.614016 1 0 ack 40 ------- 0 2.0 0.0 37 88
+ 1.614016 0 1 tcp 1540 ------- 0 0.0 2.0 57 108
- 1.614016 0 1 tcp 1540 ------- 0 0.0 2.0 57 108
r 1.614139 1 0 ack 40 ------- 0 2.0 0.0 38 89
+ 1.614139 0 1 tcp 1540 ------- 0 0.0 2.0 58 109
- 1.614139 0 1 tcp 1540 ------- 0 0.0 2.0 58 109
r 1.614262 1 0 ack 40 ------- 0 2.0 0.0 39 90
+ 1.614262 0 1 tcp 1540 ------- 0 0.0 2.0 59 110
- 1.614262 0 1 tcp 1540 ------- 0 0.0 2.0 59 110
r 1.614386 1 0 ack 40 ------- 0 2.0 0.0 40 91
+ 1.614386 0 1 tcp 1540 ------- 0 0.0 2.0 60 111
- 1.614386 0 1 tcp 1540 ------- 0 0.0 2.0 60 111
r 1.614509 1 0 ack 40 ------- 0 2.0 0.0 41 92
+ 1.614509 0 1 tcp 1540 ------- 0 0.0 2.0 61 112
- 1.614509 0 1 tcp 1540 ------- 0 0.0 2.0 61 112
r 1.614632 1 0 ack 40 ------- 0 2.0 0.0 42 93
+ 1.614632 0 1 tcp 1540 ------- 0 0.0 2.0 62 113
- 1.614632 0 1 tcp 1540 ------- 0 0.0 2.0 62 113
r 1.614755 1 0 ack 40 ------- 0 2.0 0.0 43 94