V -t * -v 1.0a5 -a 0
A -t * -n 1 -p 0 -o 0x7fffffff -c 30 -a 1
A -t * -h 1 -m 1073741823 -s 0
n -t * -a 0 -s 0 -S UP -v circle -c black -i black
n -t * -a 1 -s 1 -S UP -v circle -c black -i black
n -t * -a 2 -s 2 -S UP -v circle -c black -i black
l -t * -s 0 -d 1 -S UP -r 100000000 -D 0.050000000000000003 -c black -o right-down
l -t * -s 1 -d 2 -S UP -r 100000000 -D 0.001 -c black -o right-up
+ -t 1 -s 0 -d 1 -p tcp -e 40 -c 0 -i 0 -a 0 -x {0.0 2.0 0 ------- null}
- -t 1 -s 0 -d 1 -p tcp -e 40 -c 0 -i 0 -a 0 -x {0.0 2.0 0 ------- null}
h -t 1 -s 0 -d 1 -p tcp -e 40 -c 0 -i 0 -a 0 -x {0.0 2.0 -1 ------- null}
r -t 1.0500032 -s 0 -d 1 -p tcp -e 40 -c 0 -i 0 -a 0 -x {0.0 2.0 0 ------- null}
+ -t 1.0500032 -s 1 -d 2 -p tcp -e 40 -c 0 -i 0 -a 0 -x {0.0 2.0 0 ------- null}
- -t 1.0500032 -s 1 -d 2 -p tcp -e 40 -c 0 -i 0 -a 0 -x {0.0 2.0 0 ------- null}
h -t 1.0500032 -s 1 -d 2 -p tcp -e 40 -c 0 -i 0 -a 0 -x {0.0 2.0 -1 ------- null}
r -t 1.0510064 -s 1 -d 2 -p tcp -e 40 -c 0 -i 0 -a 0 -x {0.0 2.0 0 ------- null}
+ -t 1.0510064 -s 2 -d 1 -p ack -e 40 -c 0 -i 1 -a 0 -x {2.0 0.0 0 ------- null}
- -t 1.0510064 -s 2 -d 1 -p ack -e 40 -c 0 -i 1 -a 0 -x {2.0 0.0 0 ------- null}
h -t 1.0510064 -s 2 -d 1 -p ack -e 40 -c 0 -i 1 -a 0 -x {2.0 0.0 -1 ------- null}
r -t 1.0520096 -s 2 -d 1 -p ack -e 40 -c 0 -i 1 -a 0 -x {2.0 0.0 0 ------- null}
+ -t 1.0520096 -s 1 -d 0 -p ack -e 40 -c 0 -i 1 -a 0 -x {2.0 0.0 0 ------- null}
- -t 1.0520096 -s 1 -d 0 -p ack -e 40 -c 0 -i 1 -a 0 -x {2.0 0.0 0 ------- null}
h -t 1.0520096 -s 1 -d 0 -p ack -e 40 -c 0 -i 1 -a 0 -x {2.0 0.0 -1 ------- null}
r -t 1.1020128 -s 1 -d 0 -p ack -e 40 -c 0 -i 1 -a 0 -x {2.0 0.0 0 ------- null}
+ -t 1.1020128 -s 0 -d 1 -p tcp -e 1540 -c 0 -i 2 -a 0 -x {0.0 2.0 1 ------- null}
- -t 1.1020128 -s 0 -d 1 -p tcp -e 1540 -c 0 -i 2 -a 0 -x {0.0 2.0 1 ------- null}
h -t 1.1020128 -s 0 -d 1 -p tcp -e 1540 -c 0 -i 2 -a 0 -x {0.0 2.0 -1 ------- null}
+ -t 1.1020128 -s 0 -d 1 -p tcp -e 1540 -c 0 -i 3 -a 0 -x {0.0 2.0 2 ------- null}
- -t 1.102136 -s 0 -d 1 -p tcp -e 1540 -c 0 -i 3 -a 0 -x {0.0 2.0 2 ------- null}
h -t 1.102136 -s 0 -d 1 -p tcp -e 1540 -c 0 -i 3 -a 0 -x {0.0 2.0 -1 ------- null}
r -t 1.152136 -s 0 -d 1 -p tcp -e 1540 -c 0 -i 2 -a 0 -x {0.0 2.0 1 ------- null}
+ -t 1.152136 -s 1 -d 2 -p tcp -e 1540 -c 0 -i 2 -a 0 -x {0.0 2.0 1 ------- null}
- -t 1.152136 -s 1 -d 2 -p tcp -e 1540 -c 0 -i 2 -a 0 -x {0.0 2.0 1 ------- null}
h -t 1.152136 -s 1 -d 2 -p tcp -e 1540 -c 0 -i 2 -a 0 -x {0.0 2.0 -1 ------- null}
r -t 1.1522592 -s 0 -d 1 -p tcp -e 1540 -c 0 -i 3 -a 0 -x {0.0 2.0 2 ------- null}
+ -t 1.1522592 -s 1 -d 2 -p tcp -e 1540 -c 0 -i 3 -a 0 -x {0.0 2.0 2 ------- null}
- -t 1.1522592 -s 1 -d 2 -p tcp -e 1540 -c 0 -i 3 -a 0 -x {0.0 2.0 2 ------- null}
h -t 1.1522592 -s 1 -d 2 -p tcp -e 1540 -c 0 -i 3 -a 0 -x {0.0 2.0 -1 ------- null}
r -t 1.1532592 -s 1 -d 2 -p tcp -e 1540 -c 0 -i 2 -a 0 -x {0.0 2.0 1 ------- null}
+ -t 1.1532592 -s 2 -d 1 -p ack -e 40 -c 0 -i 4 -a 0 -x {2.0 0.0 1 ------- null}
- -t 1.1532592 -s 2 -d 1 -p ack -e 40 -c 0 -i 4 -a 0 -x {2.0 0.0 1 ------- null}
h -t 1.1532592 -s 2 -d 1 -p ack -e 40 -c 0 -i 4 -a 0 -x {2.0 0.0 -1 ------- null}
r -t 1.1533824 -s 1 -d 2 -p tcp -e 1540 -c 0 -i 3 -a 0 -x {0.0 2.0 2 ------- null}
+ -t 1.1533824 -s 2 -d 1 -p ack -e 40 -c 0 -i 5 -a 0 -x {2.0 0.0 2 ------- null}
- -t 1.1533824 -s 2 -d 1 -p ack -e 40 -c 0 -i 5 -a 0 -x {2.0 0.0 2 ------- null}
h -t 1.1533824 -s 2 -d 1 -p ack -e 40 -c 0 -i 5 -a 0 -x {2.0 0.0 -1 ------- null}
r -t 1.1542624 -s 2 -d 1 -p ack -e 40 -c 0 -i 4 -a 0 -x {2.0 0.0 1 ------- null}
+ -t 1.1542624 -s 1 -d 0 -p ack -e 40 -c 0 -i 4 -a 0 -x {2.0 0.0 1 ------- null}
- -t 1.1542624 -s 1 -d 0 -p ack -e 40 -c 0 -i 4 -a 0 -x {2.0 0.0 1 ------- null}
h -t 1.1542624 -s 1 -d 0 -p ack -e 40 -c 0 -i 4 -a 0 -x {2.0 0.0 -1 ------- null}
r -t 1.1543856 -s 2 -d 1 -p ack -e 40 -c 0 -i 5 -a 0 -x {2.0 0.0 2 ------- null}
+ -t 1.1543856 -s 1 -d 0 -p ack -e 40 -c 0 -i 5 -a 0 -x {2.0 0.0 2 ------- null}
- -t 1.1543856 -s 1 -d 0 -p ack -e 40 -c 0 -i 5 -a 0 -x {2.0 0.0 2 ------- null}
h -t 1.1543856 -s 1 -d 0 -p ack -e 40 -c 0 -i 5 -a 0 -x {2.0 0.0 -1 ------- null}
r -t 1.2042656 -s 1 -d 0 -p ack -e 40 -c 0 -i 4 -a 0 -x {2.0 0.0 1 ------- null}
+ -t 1.2042656 -s 0 -d 1 -p tcp -e 1540 -c 0 -i 6 -a 0 -x {0.0 2.0 3 ------- null}
- -t 1.2042656 -s 0 -d 1 -p tcp -e 1540 -c 0 -i 6 -a 0 -x {0.0 2.0 3 ------- null}
h -t 1.2042656 -s 0 -d 1 -p tcp -e 1540 -c 0 -i 6 -a 0 -x {0.0 2.0 -1 ------- null}
+ -t 1.2042656 -s 0 -d 1 -p tcp -e 1540 -c 0 -i 7 -a 0 -x {0.0 2.0 4 ------- null}
r -t 1.2043888 -s 1 -d 0 -p ack -e 40 -c 0 -i 5 -a 0 -x {2.0 0.0 2 ------- null}
+ -t 1.2043888 -s 0 -d 1 -p tcp -e 1540 -c 0 -i 8 -a 0 -x {0.0 2.0 5 ------- null}
+ -t 1.2043888 -s 0 -d 1 -p tcp -e 1540 -c 0 -i 9 -a 0 -x {0.0 2.0 6 ------- null}
- -t 1.2043888 -s 0 -d 1 -p tcp -e 1540 -c 0 -i 7 -a 0 -x {0.0 2.0 4 ------- null}
h -t 1.2043888 -s 0 -d 1 -p tcp -e 1540 -c 0 -i 7 -a 0 -x {0.0 2.0 -1 ------- null}
- -t 1.204512 -s 0 -d 1 -p tcp -e 1540 -c 0 -i 8 -a 0 -x {0.0 2.0 5 ------- null}
h -t 1.204512 -s 0 -d 1 -p tcp -e 1540 -c 0 -i 8 -a 0 -x {0.0 2.0 -1 ------- null}
- -t 1.2046352 -s 0 -d 1 -p tcp -e 1540 -c 0 -i 9 -a 0 -x {0.0 2.0 6 ------- null}
h -t 1.2046352 -s 0 -d 1 -p tcp -e 1540 -c 0 -i 9 -a 0 -x {0.0 2.0 -1 ------- null}
r -t 1.2543888 -s 0 -d 1 -p tcp -e 1540 -c 0 -i 6 -a 0 -x {0.0 2.0 3 ------- null}
+ -t 1.2543888 -s 1 -d 2 -p tcp -e 1540 -c 0 -i 6 -a 0 -x {0.0 2.0 3 ------- null}
- -t 1.2543888 -s 1 -d 2 -p tcp -e 1540 -c 0 -i 6 -a 0 -x {0.0 2.0 3 ------- null}
h -t 1.2543888 -s 1 -d 2 -p tcp -e 1540 -c 0 -i 6 -a 0 -x {0.0 2.0 -1 ------- null}
r -t 1.254512 -s 0 -d 1 -p tcp -e 1540 -c 0 -i 7 -a 0 -x {0.0 2.0 4 ------- null}
+ -t 1.254512 -s 1 -d 2 -p tcp -e 1540 -c 0 -i 7 -a 0 -x {0.0 2.0 4 ------- null}
- -t 1.254512 -s 1 -d 2 -p tcp -e 1540 -c 0 -i 7 -a 0 -x {0.0 2.0 4 ------- null}
h -t 1.254512 -s 1 -d 2 -p tcp -e 1540 -c 0 -i 7 -a 0 -x {0.0 2.0 -1 ------- null}
r -t 1.2546352 -s 0 -d 1 -p tcp -e 1540 -c 0 -i 8 -a 0 -x {0.0 2.0 5 ------- null}
+ -t 1.2546352 -s 1 -d 2 -p tcp -e 1540 -c 0 -i 8 -a 0 -x {0.0 2.0 5 ------- null}
- -t 1.2546352 -s 1 -d 2 -p tcp -e 1540 -c 0 -i 8 -a 0 -x {0.0 2.0 5 ------- null}
h -t 1.2546352 -s 1 -d 2 -p tcp -e 1540 -c 0 -i 8 -a 0 -x {0.0 2.0 -1 ------- null}
r -t 1.2547584 -s 0 -d 1 -p tcp -e 1540 -c 0 -i 9 -a 0 -x {0.0 2.0 6 ------- null}
+ -t 1.2547584 -s 1 -d 2 -p tcp -e 1540 -c 0 -i 9 -a 0 -x {0.0 2.0 6 ------- null}
- -t 1.2547584 -s 1 -d 2 -p tcp -e 1540 -c 0 -i 9 -a 0 -x {0.0 2.0 6 ------- null}
h -t 1.2547584 -s 1 -d 2 -p tcp -e 1540 -c 0 -i 9 -a 0 -x {0.0 2.0 -1 ------- null}
r -t 1.255512 -s 1 -d 2 -p tcp -e 1540 -c 0 -i 6 -a 0 -x {0.0 2.0 3 ------- null}
+ -t 1.255512 -s 2 -d 1 -p ack -e 40 -c 0 -i 10 -a 0 -x {2.0 0.0 3 ------- null}
- -t 1.255512 -s 2 -d 1 -p ack -e 40 -c 0 -i 10 -a 0 -x {2.0 0.0 3 ------- null}
h -t 1.255512 -s 2 -d 1 -p ack -e 40 -c 0 -i 10 -a 0 -x {2.0 0.0 -1 ------- null}
r -t 1.2556352 -s 1 -d 2 -p tcp -e 1540 -c 0 -i 7 -a 0 -x {0.0 2.0 4 ------- null}
+ -t 1.2556352 -s 2 -d 1 -p ack -e 40 -c 0 -i 11 -a 0 -x {2.0 0.0 4 ------- null}
- -t 1.2556352 -s 2 -d 1 -p ack -e 40 -c 0 -i 11 -a 0 -x {2.0 0.0 4 ------- null}
h -t 1.2556352 -s 2 -d 1 -p ack -e 40 -c 0 -i 11 -a 0 -x {2.0 0.0 -1 ------- null}
r -t 1.2557584 -s 1 -d 2 -p tcp -e 1540 -c 0 -i 8 -a 0 -x {0.0 2.0 5 ------- null}
+ -t 1.2557584 -s 2 -d 1 -p ack -e 40 -c 0 -i 12 -a 0 -x {2.0 0.0 5 ------- null}
- -t 1.2557584 -s 2 -d 1 -p ack -e 40 -c 0 -i 12 -a 0 -x {2.0 0.0 5 ------- null}
h -t 1.2557584 -s 2 -d 1 -p ack -e 40 -c 0 -i 12 -a 0 -x {2.0 0.0 -1 ------- null}
r -t 1.2558816 -s 1 -d 2 -p tcp -e 1540 -c 0 -i 9 -a 0 -x {0.0 2.0 6 ------- null}
+ -t 1.2558816 -s 2 -d 1 -p ack -e 40 -c 0 -i 13 -a 0 -x {2.0 0.0 6 ------- null}
- -t 1.2558816 -s 2 -d 1 -p ack -e 40 -c 0 -i 13 -a 0 -x {2.0 0.0 6 ------- null}
h -t 1.2558816 -s 2 -d 1 -p ack -e 40 -c 0 -i 13 -a 0 -x {2.0 0.0 -1 ------- null}
r -t 1.2565152 -s 2 -d 1 -p ack -e 40 -c 0 -i 10 -a 0 -x {2.0 0.0 3 ------- null}
+ -t 1.2565152 -s 1 -d 0 -p ack -e 40 -c 0 -i 10 -a 0 -x {2.0 0.0 3 ------- null}
- -t 1.2565152 -s 1 -d 0 -p ack -e 40 -c 0 -i 10 -a 0 -x {2.0 0.0 3 ------- null}
h -t 1.2565152 -s 1 -d 0 -p ack -e 40 -c 0 -i 10 -a 0 -x {2.0 0.0 -1 ------- null}
r -t 1.2566384 -s 2 -d 1 -p ack -e 40 -c 0 -i 11 -a 0 -x {2.0 0.0 4 ------- null}
+ -t 1.2566384 -s 1 -d 0 -p ack -e 40 -c 0 -i 11 -a 0 -x {2.0 0.0 4 ------- null}
- -t 1.2566384 -s 1 -d 0 -p ack -e 40 -c 0 -i 11 -a 0 -x {2.0 0.0 4 ------- null}
h -t 1.2566384 -s 1 -d 0 -p ack -e 40 -c 0 -i 11 -a 0 -x {2.0 0.0 -1 ------- null}
r -t 1.2567616 -s 2 -d 1 -p ack -e 40 -c 0 -i 12 -a 0 -x {2.0 0.0 5 ------- null}
+ -t 1.2567616 -s 1 -d 0 -p ack -e 40 -c 0 -i 12 -a 0 -x {2.0 0.0 5 ------- null}
- -t 1.2567616 -s 1 -d 0 -p ack -e 40 -c 0 -i 12 -a 0 -x {2.0 0.0 5 ------- null}
h -t 1.2567616 -s 1 -d 0 -p ack -e 40 -c 0 -i 12 -a 0 -x {2.0 0.0 -1 ------- null}
r -t 1.2568848 -s 2 -d 1 -p ack -e 40 -c 0 -i 13 -a 0 -x {2.0 0.0 6 ------- null}
+ -t 1.2568848 -s 1 -d 0 -p ack -e 40 -c 0 -i 13 -a 0 -x {2.0 0.0 6 ------- null}
- -t 1.2568848 -s 1 -d 0 -p ack -e 40 -c 0 -i 13 -a 0 -x {2.0 0.0 6 ------- null}
h -t 1.2568848 -s 1 -d 0 -p ack -e 40 -c 0 -i 13 -a 0 -x {2.0 0.0 -1 ------- null}
r -t 1.3065184 -s 1 -d 0 -p ack -e 40 -c 0 -i 10 -a 0 -x {2.0 0.0 3 ------- null}
+ -t 1.3065184 -s 0 -d 1 -p tcp -e 1540 -c 0 -i 14 -a 0 -x {0.0 2.0 7 ------- null}
- -t 1.3065184 -s 0 -d 1 -p tcp -e 1540 -c 0 -i 14 -a 0 -x {0.0 2.0 7 ------- null}
h -t 1.3065184 -s 0 -d 1 -p tcp -e 1540 -c 0 -i 14 -a 0 -x {0.0 2.0 -1 ------- null}
+ -t 1.3065184 -s 0 -d 1 -p tcp -e 1540 -c 0 -i 15 -a 0 -x {0.0 2.0 8 ------- null}
r -t 1.3066416 -s 1 -d 0 -p ack -e 40 -c 0 -i 11 -a 0 -x {2.0 0.0 4 ------- null}
+ -t 1.3066416 -s 0 -d 1 -p tcp -e 1540 -c 0 -i 16 -a 0 -x {0.0 2.0 9 ------- null}
+ -t 1.3066416 -s 0 -d 1 -p tcp -e 1540 -c 0 -i 17 -a 0 -x {0.0 2.0 10 ------- null}
- -t 1.3066416 -s 0 -d 1 -p tcp -e 1540 -c 0 -i 15 -a 0 -x {0.0 2.0 8 ------- null}
h -t 1.3066416 -s 0 -d 1 -p tcp -e 1540 -c 0 -i 15 -a 0 -x {0.0 2.0 -1 ------- null}
r -t 1.3067648 -s 1 -d 0 -p ack -e 40 -c 0 -i 12 -a 0 -x {2.0 0.0 5 ------- null}
+ -t 1.3067648 -s 0 -d 1 -p tcp -e 1540 -c 0 -i 18 -a 0 -x {0.0 2.0 11 ------- null}
+ -t 1.3067648 -s 0 -d 1 -p tcp -e 1540 -c 0 -i 19 -a 0 -x {0.0 2.0 12 ------- null}
- -t 1.3067648 -s 0 -d 1 -p tcp -e 1540 -c 0 -i 16 -a 0 -x {0.0 2.0 9 ------- null}
h -t 1.3067648 -s 0 -d 1 -p tcp -e 1540 -c 0 -i 16 -a 0 -x {0.0 2.0 -1 ------- null}
r -t 1.306888 -s 1 -d 0 -p ack -e 40 -c 0 -i 13 -a 0 -x {2.0 0.0 6 ------- null}
+ -t 1.306888 -s 0 -d 1 -p tcp -e 1540 -c 0 -i 20 -a 0 -x {0.0 2.0 13 ------- null}
+ -t 1.306888 -s 0 -d 1 -p tcp -e 1540 -c 0 -i 21 -a 0 -x {0.0 2.0 14 ------- null}
- -t 1.306888 -s 0 -d 1 -p tcp -e 1540 -c 0 -i 17 -a 0 -x {0.0 2.0 10 ------- null}
h -t 1.306888 -s 0 -d 1 -p tcp -e 1540 -c 0 -i 17 -a 0 -x {0.0 2.0 -1 ------- null}
- -t 1.3070112 -s 0 -d 1 -p tcp -e 1540 -c 0 -i 18 -a 0 -x {0.0 2.0 11 ------- null}
h -t 1.3070112 -s 0 -d 1 -p tcp -e 1540 -c 0 -i 18 -a 0 -x {0.0 2.0 -1 ------- null}
- -t 1.3071344 -s 0 -d 1 -p tcp -e 1540 -c 0 -i 19 -a 0 -x {0.0 2.0 12 ------- null}
h -t 1.3071344 -s 0 -d 1 -p tcp -e 1540 -c 0 -i 19 -a 0 -x {0.0 2.0 -1 ------- null}
- -t 1.3072576 -s 0 -d 1 -p tcp -e 1540 -c 0 -i 20 -a 0 -x {0.0 2.0 13 ------- null}
h -t 1.3072576 -s 0 -d 1 -p tcp -e 1540 -c 0 -i 20 -a 0 -x {0.0 2.0 -1 ------- null}
- -t 1.3073808 -s 0 -d 1 -p tcp -e 1540 -c 0 -i 21 -a 0 -x {0.0 2.0 14 ------- null}
h -t 1.3073808 -s 0 -d 1 -p tcp -e 1540 -c 0 -i 21 -a 0 -x {0.0 2.0 -1 ------- null}
r -t 1.3566416 -s 0 -d 1 -p tcp -e 1540 -c 0 -i 14 -a 0 -x {0.0 2.0 7 ------- null}
+ -t 1.3566416 -s 1 -d 2 -p tcp -e 1540 -c 0 -i 14 -a 0 -x {0.0 2.0 7 ------- null}
- -t 1.3566416 -s 1 -d 2 -p tcp -e 1540 -c 0 -i 14 -a 0 -x {0.0 2.0 7 ------- null}
h -t 1.3566416 -s 1 -d 2 -p tcp -e 1540 -c 0 -i 14 -a 0 -x {0.0 2.0 -1 ------- null}
r -t 1.3567648 -s 0 -d 1 -p tcp -e 1540 -c 0 -i 15 -a 0 -x {0.0 2.0 8 ------- null}
+ -t 1.3567648 -s 1 -d 2 -p tcp -e 1540 -c 0 -i 15 -a 0 -x {0.0 2.0 8 ------- null}
- -t 1.3567648 -s 1 -d 2 -p tcp -e 1540 -c 0 -i 15 -a 0 -x {0.0 2.0 8 ------- null}
h -t 1.3567648 -s 1 -d 2 -p tcp -e 1540 -c 0 -i 15 -a 0 -x {0.0 2.0 -1 ------- null}
r -t 1.356888 -s 0 -d 1 -p tcp -e 1540 -c 0 -i 16 -a 0 -x {0.0 2.0 9 ------- null}
+ -t 1.356888 -s 1 -d 2 -p tcp -e 1540 -c 0 -i 16 -a 0 -x {0.0 2.0 9 ------- null}
- -t 1.356888 -s 1 -d 2 -p tcp -e 1540 -c 0 -i 16 -a 0 -x {0.0 2.0 9 ------- null}
h -t 1.356888 -s 1 -d 2 -p tcp -e 1540 -c 0 -i 16 -a 0 -x {0.0 2.0 -1 ------- null}
r -t 1.3570112 -s 0 -d 1 -p tcp -e 1540 -c 0 -i 17 -a 0 -x {0.0 2.0 10 ------- null}
+ -t 1.3570112 -s 1 -d 2 -p tcp -e 1540 -c 0 -i 17 -a 0 -x {0.0 2.0 10 ------- null}
- -t 1.3570112 -s 1 -d 2 -p tcp -e 1540 -c 0 -i 17 -a 0 -x {0.0 2.0 10 ------- null}
h -t 1.3570112 -s 1 -d 2 -p tcp -e 1540 -c 0 -i 17 -a 0 -x {0.0 2.0 -1 ------- null}
r -t 1.3571344 -s 0 -d 1 -p tcp -e 1540 -c 0 -i 18 -a 0 -x {0.0 2.0 11 ------- null}
+ -t 1.3571344 -s 1 -d 2 -p tcp -e 1540 -c 0 -i 18 -a 0 -x {0.0 2.0 11 ------- null}
- -t 1.3571344 -s 1 -d 2 -p tcp -e 1540 -c 0 -i 18 -a 0 -x {0.0 2.0 11 ------- null}
h -t 1.3571344 -s 1 -d 2 -p tcp -e 1540 -c 0 -i 18 -a 0 -x {0.0 2.0 -1 ------- null}
r -t 1.3572576 -s 0 -d 1 -p tcp -e 1540 -c 0 -i 19 -a 0 -x {0.0 2.0 12 ------- null}
+ -t 1.3572576 -s 1 -d 2 -p tcp -e 1540 -c 0 -i 19 -a 0 -x {0.0 2.0 12 ------- null}
- -t 1.3572576 -s 1 -d 2 -p tcp -e 1540 -c 0 -i 19 -a 0 -x {0.0 2.0 12 ------- null}
h -t 1.3572576 -s 1 -d 2 -p tcp -e 1540 -c 0 -i 19 -a 0 -x {0.0 2.0 -1 ------- null}
r -t 1.3573808 -s 0 -d 1 -p tcp -e 1540 -c 0 -i 20 -a 0 -x {0.0 2.0 13 ------- null}
+ -t 1.3573808 -s 1 -d 2 -p tcp -e 1540 -c 0 -i 20 -a 0 -x {0.0 2.0 13 ------- null}
- -t 1.3573808 -s 1 -d 2 -p tcp -e 1540 -c 0 -i 20 -a 0 -x {0.0 2.0 13 ------- null}
h -t 1.3573808 -s 1 -d 2 -p tcp -e 1540 -c 0 -i 20 -a 0 -x {0.0 2.0 -1 ------- null}
r -t 1.357504 -s 0 -d 1 -p tcp -e 1540 -c 0 -i 21 -a 0 -x {0.0 2.0 14 ------- null}
+ -t 1.357504 -s 1 -d 2 -p tcp -e 1540 -c 0 -i 21 -a 0 -x {0.0 2.0 14 ------- null}
- -t 1.357504 -s 1 -d 2 -p tcp -e 1540 -c 0 -i 21 -a 0 -x {0.0 2.0 14 ------- null}
h -t 1.357504 -s 1 -d 2 -p tcp -e 1540 -c 0 -i 21 -a 0 -x {0.0 2.0 -1 ------- null}
r -t 1.3577648 -s 1 -d 2 -p tcp -e 1540 -c 0 -i 14 -a 0 -x {0.0 2.0 7 ------- null}
+ -t 1.3577648 -s 2 -d 1 -p ack -e 40 -c 0 -i 22 -a 0 -x {2.0 0.0 7 ------- null}
- -t 1.3577648 -s 2 -d 1 -p ack -e 40 -c 0 -i 22 -a 0 -x {2.0 0.0 7 ------- null}
h -t 1.3577648 -s 2 -d 1 -p ack -e 40 -c 0 -i 22 -a 0 -x {2.0 0.0 -1 ------- null}
r -t 1.357888 -s 1 -d 2 -p tcp -e 1540 -c 0 -i 15 -a 0 -x {0.0 2.0 8 ------- null}
+ -t 1.357888 -s 2 -d 1 -p ack -e 40 -c 0 -i 23 -a 0 -x {2.0 0.0 8 ------- null}
- -t 1.357888 -s 2 -d 1 -p ack -e 40 -c 0 -i 23 -a 0 -x {2.0 0.0 8 ------- null}
h -t 1.357888 -s 2 -d 1 -p ack -e 40 -c 0 -i 23 -a 0 -x {2.0 0.0 -1 ------- null}
r -t 1.3580112 -s 1 -d 2 -p tcp -e 1540 -c 0 -i 16 -a 0 -x {0.0 2.0 9 ------- null}
+ -t 1.3580112 -s 2 -d 1 -p ack -e 40 -c 0 -i 24 -a 0 -x {2.0 0.0 9 ------- null}
- -t 1.3580112 -s 2 -d 1 -p ack -e 40 -c 0 -i 24 -a 0 -x {2.0 0.0 9 ------- null}
h -t 1.3580112 -s 2 -d 1 -p ack -e 40 -c 0 -i 24 -a 0 -x {2.0 0.0 -1 ------- null}
r -t 1.3581344 -s 1 -d 2 -p tcp -e 1540 -c 0 -i 17 -a 0 -x {0.0 2.0 10 ------- null}
+ -t 1.3581344 -s 2 -d 1 -p ack -e 40 -c 0 -i 25 -a 0 -x {2.0 0.0 10 ------- null}
- -t 1.3581344 -s 2 -d 1 -p ack -e 40 -c 0 -i 25 -a 0 -x {2.0 0.0 10 ------- null}
h -t 1.3581344 -s 2 -d 1 -p ack -e 40 -c 0 -i 25 -a 0 -x {2.0 0.0 -1 ------- null}
r -t 1.3582576 -s 1 -d 2 -p tcp -e 1540 -c 0 -i 18 -a 0 -x {0.0 2.0 11 ------- null}
+ -t 1.3582576 -s 2 -d 1 -p ack -e 40 -c 0 -i 26 -a 0 -x {2.0 0.0 11 ------- null}
- -t 1.3582576 -s 2 -d 1 -p ack -e 40 -c 0 -i 26 -a 0 -x {2.0 0.0 11 ------- null}
h -t 1.3582576 -s 2 -d 1 -p ack -e 40 -c 0 -i 26 -a 0 -x {2.0 0.0 -1 ------- null}
r -t 1.3583808 -s 1 -d 2 -p tcp -e 1540 -c 0 -i 19 -a 0 -x {0.0 2.0 12 ------- null}
+ -t 1.3583808 -s 2 -d 1 -p ack -e 40 -c 0 -i 27 -a 0 -x {2.0 0.0 12 ------- null}
- -t 1.3583808 -s 2 -d 1 -p ack -e 40 -c 0 -i 27 -a 0 -x {2.0 0.0 12 ------- null}
h -t 1.3583808 -s 2 -d 1 -p ack -e 40 -c 0 -i 27 -a 0 -x {2.0 0.0 -1 ------- null}
r -t 1.358504 -s 1 -d 2 -p tcp -e 1540 -c 0 -i 20 -a 0 -x {0.0 2.0 13 ------- null}
+ -t 1.358504 -s 2 -d 1 -p ack -e 40 -c 0 -i 28 -a 0 -x {2.0 0.0 13 ------- null}
- -t 1.358504 -s 2 -d 1 -p ack -e 40 -c 0 -i 28 -a 0 -x {2.0 0.0 13 ------- null}
h -t 1.358504 -s 2 -d 1 -p ack -e 40 -c 0 -i 28 -a 0 -x {2.0 0.0 -1 ------- null}
r -t 1.3586272 -s 1 -d 2 -p tcp -e 1540 -c 0 -i 21 -a 0 -x {0.0 2.0 14 ------- null}
+ -t 1.3586272 -s 2 -d 1 -p ack -e 40 -c 0 -i 29 -a 0 -x {2.0 0.0 14 ------- null}
- -t 1.3586272 -s 2 -d 1 -p ack -e 40 -c 0 -i 29 -a 0 -x {2.0 0.0 14 ------- null}
h -t 1.3586272 -s 2 -d 1 -p ack -e 40 -c 0 -i 29 -a 0 -x {2.0 0.0 -1 ------- null}
r -t 1.358768 -s 2 -d 1 -p ack -e 40 -c 0 -i 22 -a 0 -x {2.0 0.0 7 ------- null}
+ -t 1.358768 -s 1 -d 0 -p ack -e 40 -c 0 -i 22 -a 0 -x {2.0 0.0 7 ------- null}
- -t 1.358768 -s 1 -d 0 -p ack -e 40 -c 0 -i 22 -a 0 -x {2.0 0.0 7 ------- null}
h -t 1.358768 -s 1 -d 0 -p ack -e 40 -c 0 -i 22 -a 0 -x {2.0 0.0 -1 ------- null}
r -t 1.3588912 -s 2 -d 1 -p ack -e 40 -c 0 -i 23 -a 0 -x {2.0 0.0 8 ------- null}
+ -t 1.3588912 -s 1 -d 0 -p ack -e 40 -c 0 -i 23 -a 0 -x {2.0 0.0 8 ------- null}
- -t 1.3588912 -s 1 -d 0 -p ack -e 40 -c 0 -i 23 -a 0 -x {2.0 0.0 8 ------- null}
h -t 1.3588912 -s 1 -d 0 -p ack -e 40 -c 0 -i 23 -a 0 -x {2.0 0.0 -1 ------- null}
r -t 1.3590144 -s 2 -d 1 -p ack -e 40 -c 0 -i 24 -a 0 -x {2.0 0.0 9 ------- null}
+ -t 1.3590144 -s 1 -d 0 -p ack -e 40 -c 0 -i 24 -a 0 -x {2.0 0.0 9 ------- null}
- -t 1.3590144 -s 1 -d 0 -p ack -e 40 -c 0 -i 24 -a 0 -x {2.0 0.0 9 ------- null}
h -t 1.3590144 -s 1 -d 0 -p ack -e 40 -c 0 -i 24 -a 0 -x {2.0 0.0 -1 ------- null}
r -t 1.3591376 -s 2 -d 1 -p ack -e 40 -c 0 -i 25 -a 0 -x {2.0 0.0 10 ------- null}
+ -t 1.3591376 -s 1 -d 0 -p ack -e 40 -c 0 -i 25 -a 0 -x {2.0 0.0 10 ------- null}
- -t 1.3591376 -s 1 -d 0 -p ack -e 40 -c 0 -i 25 -a 0 -x {2.0 0.0 10 ------- null}
h -t 1.3591376 -s 1 -d 0 -p ack -e 40 -c 0 -i 25 -a 0 -x {2.0 0.0 -1 ------- null}
r -t 1.3592608 -s 2 -d 1 -p ack -e 40 -c 0 -i 26 -a 0 -x {2.0 0.0 11 ------- null}
+ -t 1.3592608 -s 1 -d 0 -p ack -e 40 -c 0 -i 26 -a 0 -x {2.0 0.0 11 ------- null}
- -t 1.3592608 -s 1 -d 0 -p ack -e 40 -c 0 -i 26 -a 0 -x {2.0 0.0 11 ------- null}
h -t 1.3592608 -s 1 -d 0 -p ack -e 40 -c 0 -i 26 -a 0 -x {2.0 0.0 -1 ------- null}
r -t 1.359384 -s 2 -d 1 -p ack -e 40 -c 0 -i 27 -a 0 -x {2.0 0.0 12 ------- null}
+ -t 1.359384 -s 1 -d 0 -p ack -e 40 -c 0 -i 27 -a 0 -x {2.0 0.0 12 ------- null}
- -t 1.359384 -s 1 -d 0 -p ack -e 40 -c 0 -i 27 -a 0 -x {2.0 0.0 12 ------- null}
h -t 1.359384 -s 1 -d 0 -p ack -e 40 -c 0 -i 27 -a 0 -x {2.0 0.0 -1 ------- null}
r -t 1.3595072 -s 2 -d 1 -p ack -e 40 -c 0 -i 28 -a 0 -x {2.0 0.0 13 ------- null}
+ -t 1.3595072 -s 1 -d 0 -p ack -e 40 -c 0 -i 28 -a 0 -x {2.0 0.0 13 ------- null}
- -t 1.3595072 -s 1 -d 0 -p ack -e 40 -c 0 -i 28 -a 0 -x {2.0 0.0 13 ------- null}
h -t 1.3595072 -s 1 -d 0 -p ack -e 40 -c 0 -i 28 -a 0 -x {2.0 0.0 -1 ------- null}
r -t 1.3596304 -s 2 -d 1 -p ack -e 40 -c 0 -i 29 -a 0 -x {2.0 0.0 14 ------- null}
+ -t 1.3596304 -s 1 -d 0 -p ack -e 40 -c 0 -i 29 -a 0 -x {2.0 0.0 14 ------- null}
- -t 1.3596304 -s 1 -d 0 -p ack -e 40 -c 0 -i 29 -a 0 -x {2.0 0.0 14 ------- null}
h -t 1.3596304 -s 1 -d 0 -p ack -e 40 -c 0 -i 29 -a 0 -x {2.0 0.0 -1 ------- null}
r -t 1.4087712 -s 1 -d 0 -p ack -e 40 -c 0 -i 22 -a 0 -x {2.0 0.0 7 ------- null}
+ -t 1.4087712 -s 0 -d 1 -p tcp -e 1540 -c 0 -i 30 -a 0 -x {0.0 2.0 15 ------- null}
- -t 1.4087712 -s 0 -d 1 -p tcp -e 1540 -c 0 -i 30 -a 0 -x {0.0 2.0 15 ------- null}
h -t 1.4087712 -s 0 -d 1 -p tcp -e 1540 -c 0 -i 30 -a 0 -x {0.0 2.0 -1 ------- null}
+ -t 1.4087712 -s 0 -d 1 -p tcp -e 1540 -c 0 -i 31 -a 0 -x {0.0 2.0 16 ------- null}
r -t 1.4088944 -s 1 -d 0 -p ack -e 40 -c 0 -i 23 -a 0 -x {2.0 0.0 8 ------- null}
+ -t 1.4088944 -s 0 -d 1 -p tcp -e 1540 -c 0 -i 32 -a 0 -x {0.0 2.0 17 ------- null}
+ -t 1.4088944 -s 0 -d 1 -p tcp -e 1540 -c 0 -i 33 -a 0 -x {0.0 2.0 18 ------- null}
- -t 1.4088944 -s 0 -d 1 -p tcp -e 1540 -c 0 -i 31 -a 0 -x {0.0 2.0 16 ------- null}
h -t 1.4088944 -s 0 -d 1 -p tcp -e 1540 -c 0 -i 31 -a 0 -x {0.0 2.0 -1 ------- null}
r -t 1.4090176 -s 1 -d 0 -p ack -e 40 -c 0 -i 24 -a 0 -x {2.0 0.0 9 ------- null}
+ -t 1.4090176 -s 0 -d 1 -p tcp -e 1540 -c 0 -i 34 -a 0 -x {0.0 2.0 19 ------- null}
+ -t 1.4090176 -s 0 -d 1 -p tcp -e 1540 -c 0 -i 35 -a 0 -x {0.0 2.0 20 ------- null}
- -t 1.4090176 -s 0 -d 1 -p tcp -e 1540 -c 0 -i 32 -a 0 -x {0.0 2.0 17 ------- null}
h -t 1.4090176 -s 0 -d 1 -p tcp -e 1540 -c 0 -i 32 -a 0 -x {0.0 2.0 -1 ------- null}
r -t 1.4091408 -s 1 -d 0 -p ack -e 40 -c 0 -i 25 -a 0 -x {2.0 0.0 10 ------- null}
+ -t 1.4091408 -s 0 -d 1 -p tcp -e 1540 -c 0 -i 36 -a 0 -x {0.0 2.0 21 ------- null}
+ -t 1.4091408 -s 0 -d 1 -p tcp -e 1540 -c 0 -i 37 -a 0 -x {0.0 2.0 22 ------- null}
- -t 1.4091408 -s 0 -d 1 -p tcp -e 1540 -c 0 -i 33 -a 0 -x {0.0 2.0 18 ------- null}
h -t 1.4091408 -s 0 -d 1 -p tcp -e 1540 -c 0 -i 33 -a 0 -x {0.0 2.0 -1 ------- null}
r -t 1.409264 -s 1 -d 0 -p ack -e 40 -c 0 -i 26 -a 0 -x {2.0 0.0 11 ------- null}
+ -t 1.409264 -s 0 -d 1 -p tcp -e 1540 -c 0 -i 38 -a 0 -x {0.0 2.0 23 ------- null}
+ -t 1.409264 -s 0 -d 1 -p tcp -e 1540 -c 0 -i 39 -a 0 -x {0.0 2.0 24 ------- null}
- -t 1.409264 -s 0 -d 1 -p tcp -e 1540 -c 0 -i 34 -a 0 -x {0.0 2.0 19 ------- null}
h -t 1.409264 -s 0 -d 1 -p tcp -e 1540 -c 0 -i 34 -a 0 -x {0.0 2.0 -1 ------- null}
r -t 1.4093872 -s 1 -d 0 -p ack -e 40 -c 0 -i 27 -a 0 -x {2.0 0.0 12 ------- null}
+ -t 1.4093872 -s 0 -d 1 -p tcp -e 1540 -c 0 -i 40 -a 0 -x {0.0 2.0 25 ------- null}
+ -t 1.4093872 -s 0 -d 1 -p tcp -e 1540 -c 0 -i 41 -a 0 -x {0.0 2.0 26 ------- null}
- -t 1.4093872 -s 0 -d 1 -p tcp -e 1540 -c 0 -i 35 -a 0 -x {0.0 2.0 20 ------- null}
h -t 1.4093872 -s 0 -d 1 -p tcp -e 1540 -c 0 -i 35 -a 0 -x {0.0 2.0 -1 ------- null}
r -t 1.4095104 -s 1 -d 0 -p ack -e 40 -c 0 -i 28 -a 0 -x {2.0 0.0 13 ------- null}
+ -t 1.4095104 -s 0 -d 1 -p tcp -e 1540 -c 0 -i 42 -a 0 -x {0.0 2.0 27 ------- null}
+ -t 1.4095104 -s 0 -d 1 -p tcp -e 1540 -c 0 -i 43 -a 0 -x {0.0 2.0 28 ------- null}
- -t 1.4095104 -s 0 -d 1 -p tcp -e 1540 -c 0 -i 36 -a 0 -x {0.0 2.0 21 ------- null}
h -t 1.4095104 -s 0 -d 1 -p tcp -e 1540 -c 0 -i 36 -a 0 -x {0.0 2.0 -1 ------- null}
r -t 1.4096336 -s 1 -d 0 -p ack -e 40 -c 0 -i 29 -a 0 -x {2.0 0.0 14 ------- null}
+ -t 1.4096336 -s 0 -d 1 -p tcp -e 1540 -c 0 -i 44 -a 0 -x {0.0 2.0 29 ------- null}
+ -t 1.4096336 -s 0 -d 1 -p tcp -e 1540 -c 0 -i 45 -a 0 -x {0.0 2.0 30 ------- null}
- -t 1.4096336 -s 0 -d 1 -p tcp -e 1540 -c 0 -i 37 -a 0 -x {0.0 2.0 22 ------- null}
h -t 1.4096336 -s 0 -d 1 -p tcp -e 1540 -c 0 -i 37 -a 0 -x {0.0 2.0 -1 ------- null}
- -t 1.4097568 -s 0 -d 1 -p tcp -e 1540 -c 0 -i 38 -a 0 -x {0.0 2.0 23 ------- null}
h -t 1.4097568 -s 0 -d 1 -p tcp -e 1540 -c 0 -i 38 -a 0 -x {0.0 2.0 -1 ------- null}
- -t 1.40988 -s 0 -d 1 -p tcp -e 1540 -c 0 -i 39 -a 0 -x {0.0 2.0 24 ------- null}
h -t 1.40988 -s 0 -d 1 -p tcp -e 1540 -c 0 -i 39 -a 0 -x {0.0 2.0 -1 ------- null}
- -t 1.4100032 -s 0 -d 1 -p tcp -e 1540 -c 0 -i 40 -a 0 -x {0.0 2.0 25 ------- null}
h -t 1.4100032 -s 0 -d 1 -p tcp -e 1540 -c 0 -i 40 -a 0 -x {0.0 2.0 -1 ------- null}
- -t 1.4101264 -s 0 -d 1 -p tcp -e 1540 -c 0 -i 41 -a 0 -x {0.0 2.0 26 ------- null}
h -t 1.4101264 -s 0 -d 1 -p tcp -e 1540 -c 0 -i 41 -a 0 -x {0.0 2.0 -1 ------- null}
- -t 1.4102496 -s 0 -d 1 -p tcp -e 1540 -c 0 -i 42 -a 0 -x {0.0 2.0 27 ------- null}
h -t 1.4102496 -s 0 -d 1 -p tcp -e 1540 -c 0 -i 42 -a 0 -x {0.0 2.0 -1 ------- null}
- -t 1.4103728 -s 0 -d 1 -p tcp -e 1540 -c 0 -i 43 -a 0 -x {0.0 2.0 28 ------- null}
h -t 1.4103728 -s 0 -d 1 -p tcp -e 1540 -c 0 -i 43 -a 0 -x {0.0 2.0 -1 ------- null}
- -t 1.410496 -s 0 -d 1 -p tcp -e 1540 -c 0 -i 44 -a 0 -x {0.0 2.0 29 ------- null}
h -t 1.410496 -s 0 -d 1 -p tcp -e 1540 -c 0 -i 44 -a 0 -x {0.0 2.0 -1 ------- null}
- -t 1.4106192 -s 0 -d 1 -p tcp -e 1540 -c 0 -i 45 -a 0 -x {0.0 2.0 30 ------- null}
h -t 1.4106192 -s 0 -d 1 -p tcp -e 1540 -c 0 -i 45 -a 0 -x {0.0 2.0 -1 ------- null}
r -t 1.4588944 -s 0 -d 1 -p tcp -e 1540 -c 0 -i 30 -a 0 -x {0.0 2.0 15 ------- null}
+ -t 1.4588944 -s 1 -d 2 -p tcp -e 1540 -c 0 -i 30 -a 0 -x {0.0 2.0 15 ------- null}
- -t 1.4588944 -s 1 -d 2 -p tcp -e 1540 -c 0 -i 30 -a 0 -x {0.0 2.0 15 ------- null}
h -t 1.4588944 -s 1 -d 2 -p tcp -e 1540 -c 0 -i 30 -a 0 -x {0.0 2.0 -1 ------- null}
r -t 1.4590176 -s 0 -d 1 -p tcp -e 1540 -c 0 -i 31 -a 0 -x {0.0 2.0 16 ------- null}
+ -t 1.4590176 -s 1 -d 2 -p tcp -e 1540 -c 0 -i 31 -a 0 -x {0.0 2.0 16 ------- null}
- -t 1.4590176 -s 1 -d 2 -p tcp -e 1540 -c 0 -i 31 -a 0 -x {0.0 2.0 16 ------- null}
h -t 1.4590176 -s 1 -d 2 -p tcp -e 1540 -c 0 -i 31 -a 0 -x {0.0 2.0 -1 ------- null}
r -t 1.4591408 -s 0 -d 1 -p tcp -e 1540 -c 0 -i 32 -a 0 -x {0.0 2.0 17 ------- null}
+ -t 1.4591408 -s 1 -d 2 -p tcp -e 1540 -c 0 -i 32 -a 0 -x {0.0 2.0 17 ------- null}
- -t 1.4591408 -s 1 -d 2 -p tcp -e 1540 -c 0 -i 32 -a 0 -x {0.0 2.0 17 ------- null}
h -t 1.4591408 -s 1 -d 2 -p tcp -e 1540 -c 0 -i 32 -a 0 -x {0.0 2.0 -1 ------- null}
r -t 1.459264 -s 0 -d 1 -p tcp -e 1540 -c 0 -i 33 -a 0 -x {0.0 2.0 18 ------- null}
+ -t 1.459264 -s 1 -d 2 -p tcp -e 1540 -c 0 -i 33 -a 0 -x {0.0 2.0 18 ------- null}
- -t 1.459264 -s 1 -d 2 -p tcp -e 1540 -c 0 -i 33 -a 0 -x {0.0 2.0 18 ------- null}
h -t 1.459264 -s 1 -d 2 -p tcp -e 1540 -c 0 -i 33 -a 0 -x {0.0 2.0 -1 ------- null}
r -t 1.4593872 -s 0 -d 1 -p tcp -e 1540 -c 0 -i 34 -a 0 -x {0.0 2.0 19 ------- null}
+ -t 1.4593872 -s 1 -d 2 -p tcp -e 1540 -c 0 -i 34 -a 0 -x {0.0 2.0 19 ------- null}
- -t 1.4593872 -s 1 -d 2 -p tcp -e 1540 -c 0 -i 34 -a 0 -x {0.0 2.0 19 ------- null}
h -t 1.4593872 -s 1 -d 2 -p tcp -e 1540 -c 0 -i 34 -a 0 -x {0.0 2.0 -1 ------- null}
r -t 1.4595104 -s 0 -d 1 -p tcp -e 1540 -c 0 -i 35 -a 0 -x {0.0 2.0 20 ------- null}
+ -t 1.4595104 -s 1 -d 2 -p tcp -e 1540 -c 0 -i 35 -a 0 -x {0.0 2.0 20 ------- null}
- -t 1.4595104 -s 1 -d 2 -p tcp -e 1540 -c 0 -i 35 -a 0 -x {0.0 2.0 20 ------- null}
h -t 1.4595104 -s 1 -d 2 -p tcp -e 1540 -c 0 -i 35 -a 0 -x {0.0 2.0 -1 ------- null}
r -t 1.4596336 -s 0 -d 1 -p tcp -e 1540 -c 0 -i 36 -a 0 -x {0.0 2.0 21 ------- null}
+ -t 1.4596336 -s 1 -d 2 -p tcp -e 1540 -c 0 -i 36 -a 0 -x {0.0 2.0 21 ------- null}
- -t 1.4596336 -s 1 -d 2 -p tcp -e 1540 -c 0 -i 36 -a 0 -x {0.0 2.0 21 ------- null}
h -t 1.4596336 -s 1 -d 2 -p tcp -e 1540 -c 0 -i 36 -a 0 -x {0.0 2.0 -1 ------- null}
r -t 1.4597568 -s 0 -d 1 -p tcp -e 1540 -c 0 -i 37 -a 0 -x {0.0 2.0 22 ------- null}
+ -t 1.4597568 -s 1 -d 2 -p tcp -e 1540 -c 0 -i 37 -a 0 -x {0.0 2.0 22 ------- null}
- -t 1.4597568 -s 1 -d 2 -p tcp -e 1540 -c 0 -i 37 -a 0 -x {0.0 2.0 22 ------- null}
h -t 1.4597568 -s 1 -d 2 -p tcp -e 1540 -c 0 -i 37 -a 0 -x {0.0 2.0 -1 ------- null}
r -t 1.45988 -s 0 -d 1 -p tcp -e 1540 -c 0 -i 38 -a 0 -x {0.0 2.0 23 ------- null}
+ -t 1.45988 -s 1 -d 2 -p tcp -e 1540 -c 0 -i 38 -a 0 -x {0.0 2.0 23 ------- null}
- -t 1.45988 -s 1 -d 2 -p tcp -e 1540 -c 0 -i 38 -a 0 -x {0.0 2.0 23 ------- null}
h -t 1.45988 -s 1 -d 2 -p tcp -e 1540 -c 0 -i 38 -a 0 -x {0.0 2.0 -1 ------- null}
r -t 1.4600032 -s 0 -d 1 -p tcp -e 1540 -c 0 -i 39 -a 0 -x {0.0 2.0 24 ------- null}
+ -t 1.4600032 -s 1 -d 2 -p tcp -e 1540 -c 0 -i 39 -a 0 -x {0.0 2.0 24 ------- null}
- -t 1.4600032 -s 1 -d 2 -p tcp -e 1540 -c 0 -i 39 -a 0 -x {0.0 2.0 24 ------- null}
h -t 1.4600032 -s 1 -d 2 -p tcp -e 1540 -c 0 -i 39 -a 0 -x {0.0 2.0 -1 ------- null}
r -t 1.4600176 -s 1 -d 2 -p tcp -e 1540 -c 0 -i 30 -a 0 -x {0.0 2.0 15 ------- null}
+ -t 1.4600176 -s 2 -d 1 -p ack -e 40 -c 0 -i 46 -a 0 -x {2.0 0.0 15 ------- null}
- -t 1.4600176 -s 2 -d 1 -p ack -e 40 -c 0 -i 46 -a 0 -x {2.0 0.0 15 ------- null}
h -t 1.4600176 -s 2 -d 1 -p ack -e 40 -c 0 -i 46 -a 0 -x {2.0 0.0 -1 ------- null}
r -t 1.4601264 -s 0 -d 1 -p tcp -e 1540 -c 0 -i 40 -a 0 -x {0.0 2.0 25 ------- null}
+ -t 1.4601264 -s 1 -d 2 -p tcp -e 1540 -c 0 -i 40 -a 0 -x {0.0 2.0 25 ------- null}
- -t 1.4601264 -s 1 -d 2 -p tcp -e 1540 -c 0 -i 40 -a 0 -x {0.0 2.0 25 ------- null}
h -t 1.4601264 -s 1 -d 2 -p tcp -e 1540 -c 0 -i 40 -a 0 -x {0.0 2.0 -1 ------- null}
r -t 1.4601408 -s 1 -d 2 -p tcp -e 1540 -c 0 -i 31 -a 0 -x {0.0 2.0 16 ------- null}
+ -t 1.4601408 -s 2 -d 1 -p ack -e 40 -c 0 -i 47 -a 0 -x {2.0 0.0 16 ------- null}
- -t 1.4601408 -s 2 -d 1 -p ack -e 40 -c 0 -i 47 -a 0 -x {2.0 0.0 16 ------- null}
h -t 1.4601408 -s 2 -d 1 -p ack -e 40 -c 0 -i 47 -a 0 -x {2.0 0.0 -1 ------- null}
r -t 1.4602496 -s 0 -d 1 -p tcp -e 1540 -c 0 -i 41 -a 0 -x {0.0 2.0 26 ------- null}
+ -t 1.4602496 -s 1 -d 2 -p tcp -e 1540 -c 0 -i 41 -a 0 -x {0.0 2.0 26 ------- null}
- -t 1.4602496 -s 1 -d 2 -p tcp -e 1540 -c 0 -i 41 -a 0 -x {0.0 2.0 26 ------- null}
h -t 1.4602496 -s 1 -d 2 -p tcp -e 1540 -c 0 -i 41 -a 0 -x {0.0 2.0 -1 ------- null}
r -t 1.460264 -s 1 -d 2 -p tcp -e 1540 -c 0 -i 32 -a 0 -x {0.0 2.0 17 ------- null}
+ -t 1.460264 -s 2 -d 1 -p ack -e 40 -c 0 -i 48 -a 0 -x {2.0 0.0 17 ------- null}
- -t 1.460264 -s 2 -d 1 -p ack -e 40 -c 0 -i 48 -a 0 -x {2.0 0.0 17 ------- null}
h -t 1.460264 -s 2 -d 1 -p ack -e 40 -c 0 -i 48 -a 0 -x {2.0 0.0 -1 ------- null}
r -t 1.4603728 -s 0 -d 1 -p tcp -e 1540 -c 0 -i 42 -a 0 -x {0.0 2.0 27 ------- null}
+ -t 1.4603728 -s 1 -d 2 -p tcp -e 1540 -c 0 -i 42 -a 0 -x {0.0 2.0 27 ------- null}